/*--------------------------------*- C++ -*----------------------------------*\
| =========                 |                                                 |
| \\      /  F ield         | OpenFOAM: The Open Source CFD Toolbox           |
|  \\    /   O peration     | Version:  4.0                                   |
|   \\  /    A nd           | Web:      www.OpenFOAM.org                      |
|    \\/     M anipulation  |                                                 |
\*---------------------------------------------------------------------------*/
FoamFile
{
    version     2.0;
    format      ascii;
    class       volScalarField;
    location    "22";
    object      p;
}
// * * * * * * * * * * * * * * * * * * * * * * * * * * * * * * * * * * * * * //

dimensions      [0 2 -2 0 0 0 0];

internalField   nonuniform List<scalar> 
2200
(
0.396378
0.374883
0.358984
0.343323
0.328729
0.316234
0.305886
0.297778
0.292038
0.289048
0.289352
0.292902
0.299062
0.307461
0.318019
0.330668
0.345362
0.361095
0.377038
0.398551
0.328769
0.325511
0.322603
0.318513
0.313088
0.306645
0.300053
0.294094
0.289528
0.287057
0.287368
0.29044
0.295432
0.301713
0.308531
0.31513
0.32067
0.324828
0.327773
0.331053
0.288844
0.289078
0.291163
0.292536
0.292953
0.292124
0.290185
0.287549
0.285
0.283369
0.283739
0.285995
0.289016
0.291999
0.294186
0.295182
0.294888
0.293642
0.291659
0.291443
0.26641
0.267877
0.270507
0.272984
0.275435
0.277484
0.278631
0.278846
0.278464
0.278031
0.278447
0.279582
0.280511
0.280702
0.279857
0.27803
0.275742
0.273381
0.270807
0.269361
0.252046
0.254019
0.256874
0.259763
0.262684
0.265549
0.268001
0.269832
0.270949
0.271536
0.272022
0.272273
0.271799
0.270439
0.268341
0.265733
0.262985
0.260197
0.257407
0.255451
0.244737
0.246297
0.248548
0.251187
0.253944
0.256651
0.259267
0.261731
0.26371
0.265036
0.265616
0.265304
0.264101
0.262209
0.260005
0.257601
0.255061
0.252562
0.250387
0.248837
0.241732
0.242722
0.244032
0.245962
0.248161
0.25035
0.252495
0.254721
0.256866
0.258595
0.259275
0.25877
0.257569
0.25606
0.254409
0.252603
0.250677
0.248937
0.24772
0.24673
0.239563
0.240229
0.240946
0.242374
0.244114
0.245865
0.247556
0.249285
0.251058
0.252672
0.253509
0.253393
0.252776
0.251905
0.250855
0.249549
0.24814
0.246933
0.246325
0.245656
0.236622
0.237012
0.237571
0.238959
0.240626
0.242343
0.244023
0.245612
0.247149
0.248566
0.249639
0.250088
0.249979
0.249454
0.248537
0.247352
0.246072
0.244945
0.244499
0.244106
0.233334
0.23349
0.234016
0.235395
0.237052
0.238857
0.240742
0.242587
0.244312
0.245866
0.247182
0.247908
0.24791
0.24737
0.24642
0.245337
0.244159
0.243104
0.242711
0.242555
0.230375
0.230411
0.23085
0.231908
0.233239
0.234802
0.236603
0.238595
0.240669
0.242682
0.244306
0.245167
0.245226
0.244854
0.244273
0.243533
0.242745
0.24206
0.241795
0.241768
0.22735
0.227295
0.227643
0.228335
0.229318
0.230545
0.231999
0.233782
0.235925
0.238286
0.240355
0.241691
0.242371
0.242564
0.242504
0.242261
0.241994
0.241745
0.241619
0.241619
0.223956
0.223879
0.224171
0.224707
0.225585
0.226703
0.22805
0.229765
0.231887
0.234441
0.236996
0.238993
0.24036
0.241148
0.241507
0.24168
0.241729
0.241697
0.241657
0.241655
0.220202
0.220175
0.220442
0.220983
0.221931
0.223169
0.224741
0.226744
0.229187
0.232157
0.235257
0.23774
0.239504
0.240643
0.241372
0.241818
0.242001
0.242071
0.242086
0.242089
0.215901
0.215894
0.216132
0.216708
0.217689
0.219039
0.22087
0.223278
0.226304
0.23002
0.23391
0.237037
0.239208
0.240756
0.241845
0.242503
0.242861
0.243059
0.243125
0.243119
0.21063
0.2106
0.210872
0.211501
0.212507
0.213924
0.215935
0.218689
0.22233
0.226944
0.231894
0.235983
0.238915
0.241004
0.242484
0.243466
0.244107
0.244499
0.244646
0.244626
0.204372
0.204333
0.204626
0.205283
0.206392
0.208029
0.210372
0.2136
0.21796
0.223585
0.229775
0.235003
0.238866
0.241633
0.243628
0.24499
0.245891
0.246417
0.246621
0.246589
0.196784
0.196747
0.197116
0.197963
0.199374
0.20144
0.204364
0.208394
0.213795
0.220737
0.228378
0.234892
0.239714
0.243184
0.245631
0.247297
0.248405
0.249045
0.249306
0.24927
0.187874
0.187819
0.188272
0.189346
0.191139
0.193773
0.197492
0.202591
0.209395
0.218075
0.227504
0.235501
0.24138
0.245609
0.248592
0.250642
0.251982
0.252742
0.253049
0.252999
0.176973
0.176932
0.177546
0.178942
0.181226
0.184558
0.189263
0.195735
0.204322
0.215177
0.226834
0.236631
0.243825
0.248997
0.252628
0.255125
0.256767
0.257702
0.258084
0.258021
0.163787
0.163698
0.164464
0.166236
0.169164
0.173459
0.179519
0.187781
0.198622
0.212147
0.226471
0.238407
0.247153
0.253447
0.257893
0.260968
0.262999
0.264155
0.264603
0.264511
0.147284
0.147264
0.148362
0.15068
0.154519
0.160177
0.168066
0.178703
0.192432
0.209206
0.226672
0.241104
0.251669
0.259272
0.264649
0.268375
0.27082
0.272203
0.27275
0.272644
0.12642
0.12635
0.127851
0.131106
0.136393
0.144069
0.154588
0.168462
0.185844
0.206529
0.227658
0.244926
0.257529
0.26662
0.273079
0.277594
0.280612
0.282326
0.282964
0.282796
0.0989528
0.0991917
0.101585
0.106305
0.113852
0.124649
0.13894
0.157022
0.178909
0.204214
0.229486
0.249906
0.264775
0.275554
0.283324
0.288811
0.292459
0.29449
0.295244
0.295046
0.0623452
0.0628409
0.0668378
0.07454
0.0860069
0.101631
0.121015
0.144475
0.171804
0.202404
0.232274
0.25614
0.273514
0.286173
0.295374
0.301995
0.306532
0.309124
0.310041
0.309696
0.0131894
0.0137635
0.0213722
0.0345815
0.0526016
0.0749353
0.101136
0.131298
0.16496
0.201467
0.236272
0.26373
0.283708
0.298407
0.309283
0.317267
0.322808
0.325866
0.326777
0.326338
-0.0532717
-0.049991
-0.0336542
-0.0113278
0.0154811
0.0461104
0.0802638
0.117908
0.158591
0.201744
0.242141
0.273945
0.297387
0.314921
0.328181
0.338269
0.345695
0.349729
0.350759
0.350501
-0.130443
-0.119058
-0.0911852
-0.0589499
-0.0224717
0.0170011
0.0593044
0.104669
0.152746
0.202994
0.24973
0.286714
0.314253
0.335326
0.351741
0.364563
0.374611
0.380644
0.383138
0.383522
-0.196782
-0.180222
-0.145338
-0.104844
-0.0593425
-0.011362
0.0390363
0.0921484
0.147537
0.204659
0.257377
0.298998
0.330064
0.354006
0.372821
0.38757
0.398852
0.406235
0.409064
0.409186
-0.245997
-0.231493
-0.19149
-0.145307
-0.0928687
-0.0377974
0.019923
0.0802184
0.142397
0.20589
0.26402
0.30961
0.343602
0.36956
0.389856
0.405659
0.417517
0.42491
0.427801
0.428078
-0.286574
-0.272935
-0.229822
-0.179992
-0.122403
-0.061665
0.00222948
0.068729
0.136985
0.206424
0.269606
0.318801
0.354889
0.382013
0.402716
0.418656
0.430673
0.438339
0.441457
0.441782
-0.321473
-0.307568
-0.262291
-0.209994
-0.148381
-0.0830983
-0.0141209
0.0576841
0.131421
0.206315
0.273929
0.325705
0.363137
0.390915
0.412121
0.428411
0.440646
0.448499
0.451818
0.452122
-0.352005
-0.338034
-0.290879
-0.236368
-0.171474
-0.102529
-0.0293397
0.0470488
0.125651
0.205219
0.276576
0.330732
0.36965
0.398326
0.419772
0.436126
0.44851
0.456468
0.459977
0.460044
-0.379616
-0.365683
-0.316819
-0.260014
-0.192295
-0.120403
-0.0437044
0.036609
0.119399
0.203163
0.278234
0.33513
0.375368
0.404756
0.426782
0.443379
0.45562
0.463725
0.46678
0.466761
-0.404858
-0.391066
-0.340831
-0.281757
-0.211514
-0.137148
-0.0574972
0.0261842
0.112694
0.200525
0.279457
0.338838
0.38062
0.411017
0.433419
0.450039
0.462207
0.470038
0.473261
0.473358
-0.428689
-0.414559
-0.363404
-0.302328
-0.229751
-0.153152
-0.0709224
0.0156986
0.105614
0.197251
0.279957
0.342326
0.386275
0.417397
0.44012
0.456821
0.468945
0.476711
0.479875
0.480049
-0.451104
-0.436763
-0.384989
-0.322198
-0.247549
-0.168796
-0.0841631
0.00511705
0.098153
0.19344
0.280066
0.345726
0.391243
0.42354
0.446859
0.463845
0.476
0.483504
0.486771
0.486955
-0.472228
-0.457934
-0.405685
-0.341537
-0.265185
-0.184367
-0.0974194
-0.00566459
0.0902425
0.189071
0.279583
0.348318
0.396126
0.429844
0.453815
0.471003
0.483296
0.490815
0.493887
0.494026
-0.49259
-0.478175
-0.425609
-0.360367
-0.282661
-0.199977
-0.110867
-0.0167737
0.081828
0.183934
0.278137
0.350186
0.400994
0.436423
0.461251
0.478727
0.490934
0.498133
0.501163
0.501239
-0.512698
-0.497695
-0.444854
-0.378659
-0.299886
-0.21562
-0.124596
-0.028339
0.0727196
0.177712
0.275473
0.351405
0.40532
0.44303
0.46909
0.486928
0.498973
0.506059
0.508701
0.508634
-0.532518
-0.516695
-0.463524
-0.396406
-0.316761
-0.231217
-0.13859
-0.0404603
0.0627434
0.17032
0.271576
0.351595
0.409169
0.449953
0.477737
0.496071
0.507608
0.513789
0.516163
0.515993
-0.551869
-0.535308
-0.481695
-0.413635
-0.333217
-0.246663
-0.152761
-0.0530787
0.0520164
0.162169
0.267048
0.351141
0.412758
0.456858
0.487187
0.506334
0.517135
0.52219
0.523673
0.523297
-0.570569
-0.553492
-0.49939
-0.430394
-0.349239
-0.261856
-0.166943
-0.0659766
0.0408526
0.153328
0.260894
0.348574
0.414697
0.463375
0.497328
0.518629
0.528911
0.530544
0.529884
0.530113
-0.588603
-0.571164
-0.516568
-0.446699
-0.364831
-0.276717
-0.180956
-0.0789071
0.029347
0.143483
0.253328
0.345113
0.415758
0.469163
0.507911
0.532959
0.544166
0.542329
0.537028
0.53456
-0.605951
-0.588225
-0.533172
-0.462529
-0.379987
-0.291193
-0.194691
-0.0917814
0.0175328
0.133149
0.245352
0.340204
0.414767
0.473791
0.51859
0.549611
0.566155
0.559162
0.552893
0.557773
-0.622627
-0.604614
-0.549131
-0.477829
-0.394688
-0.305277
-0.208153
-0.104586
0.00558765
0.122396
0.235984
0.332568
0.411338
0.475855
0.527549
0.566747
0.593382
0.579236
0.534651
0.487897
-0.638569
-0.620341
-0.564464
-0.492648
-0.409049
-0.319155
-0.221565
-0.117533
-0.00683198
0.110659
0.225232
0.323716
0.405183
0.474368
0.533372
0.583176
0.625135
0.641383
0.662919
0.713273
-0.653736
-0.635461
-0.579258
-0.507103
-0.423238
-0.333076
-0.235252
-0.131055
-0.0201855
0.097659
0.212798
0.311598
0.39455
0.467203
0.528929
0.579597
0.613839
0.622725
0.598814
0.605784
-0.668094
-0.649944
-0.593471
-0.52113
-0.437158
-0.34694
-0.249116
-0.144992
-0.0342645
0.0833199
0.198204
0.296862
0.378708
0.450065
0.50988
0.554697
0.560944
0.52387
0.469765
0.461751
-0.681673
-0.663789
-0.607113
-0.534733
-0.450789
-0.360709
-0.263078
-0.159268
-0.0490637
0.0678165
0.181872
0.278946
0.357299
0.422506
0.474969
0.493247
0.464644
0.397046
0.326729
0.316298
-0.694516
-0.676988
-0.620202
-0.547931
-0.464132
-0.374352
-0.277102
-0.173866
-0.0644834
0.0511554
0.163459
0.257753
0.330024
0.382245
0.410233
0.40154
0.354981
0.255306
0.168747
0.152514
-0.707073
-0.689959
-0.633139
-0.561093
-0.477529
-0.388155
-0.291414
-0.188928
-0.080717
0.0330652
0.142742
0.233046
0.297846
0.334865
0.328501
0.293215
0.188983
0.0668064
-0.0408071
-0.0635413
-0.720215
-0.703455
-0.646596
-0.574827
-0.491541
-0.40258
-0.306414
-0.204845
-0.0980471
0.0135689
0.11993
0.205036
0.262893
0.276976
0.2366
0.149206
-0.0102082
-0.164475
-0.292889
-0.317807
-0.734429
-0.717918
-0.660886
-0.589363
-0.506354
-0.417769
-0.322211
-0.221628
-0.116399
-0.00752103
0.0943787
0.173944
0.221786
0.20816
0.143288
-0.010662
-0.220588
-0.441064
-0.625384
-0.671683
-0.749768
-0.733367
-0.676037
-0.604708
-0.521942
-0.433697
-0.338759
-0.239258
-0.135806
-0.0298984
0.0671762
0.140385
0.172669
0.126198
0.0267055
-0.175962
-0.425232
-0.732468
-1.06902
-1.21071
-0.766285
-0.749954
-0.692155
-0.620936
-0.538348
-0.450424
-0.356143
-0.257792
-0.156167
-0.0535431
0.0380623
0.104729
0.120612
0.038777
-0.113102
-0.343062
-0.602378
-0.975473
-1.59518
-2.18399
-0.783967
-0.76763
-0.709261
-0.638081
-0.555571
-0.467925
-0.37426
-0.277047
-0.177324
-0.0780598
0.00755868
0.0667618
0.0654696
-0.0420656
-0.251424
-0.518519
-0.752353
-1.02426
-1.63995
-3.2709
-0.802887
-0.786516
-0.727449
-0.65625
-0.573728
-0.486338
-0.393333
-0.29738
-0.199677
-0.103879
-0.0244266
0.0261271
0.00541398
-0.107984
-0.358108
-0.638602
-0.819103
-0.88658
-0.914903
-1.33222
-0.822948
-0.806536
-0.746845
-0.675703
-0.593163
-0.506106
-0.413874
-0.319308
-0.223855
-0.131927
-0.0582348
-0.0175219
-0.0576541
-0.160063
-0.416728
-0.665475
-0.808703
-0.836736
-0.792422
-0.840652
-0.844162
-0.827665
-0.767484
-0.696483
-0.613883
-0.527246
-0.435935
-0.343003
-0.250236
-0.162806
-0.0942197
-0.0629599
-0.117084
-0.213613
-0.456588
-0.661091
-0.771548
-0.791827
-0.831479
-0.846758
-0.866326
-0.849493
-0.789285
-0.718549
-0.635839
-0.549775
-0.459526
-0.368384
-0.278564
-0.195755
-0.131773
-0.109768
-0.170734
-0.275515
-0.494888
-0.660451
-0.752952
-0.724805
-0.751507
-0.752376
-0.889191
-0.872014
-0.812178
-0.74179
-0.658823
-0.573483
-0.484385
-0.395109
-0.308531
-0.230597
-0.170729
-0.158433
-0.219486
-0.346735
-0.535695
-0.662227
-0.732689
-0.75604
-0.746075
-0.753908
-0.912167
-0.894818
-0.836013
-0.765885
-0.6826
-0.598177
-0.510316
-0.423024
-0.339999
-0.266883
-0.211102
-0.212709
-0.265786
-0.416906
-0.583239
-0.67928
-0.692164
-0.756786
-0.724864
-0.7358
-0.935026
-0.917774
-0.860341
-0.790257
-0.706806
-0.623483
-0.536814
-0.451417
-0.371989
-0.303646
-0.250832
-0.264707
-0.320897
-0.480604
-0.618693
-0.706404
-0.678976
-0.733485
-0.717562
-0.720683
-0.957179
-0.94038
-0.884143
-0.814317
-0.731137
-0.648885
-0.563311
-0.479704
-0.403786
-0.340398
-0.2894
-0.312437
-0.387085
-0.540681
-0.64054
-0.712806
-0.732531
-0.717483
-0.729085
-0.726196
-0.978077
-0.961987
-0.90673
-0.837198
-0.755062
-0.673751
-0.589064
-0.507202
-0.43439
-0.376097
-0.327169
-0.354024
-0.46224
-0.625791
-0.665559
-0.647046
-0.711274
-0.697582
-0.723487
-0.726503
-0.996708
-0.981637
-0.927503
-0.858438
-0.777991
-0.697095
-0.613283
-0.532827
-0.462401
-0.40964
-0.363382
-0.384026
-0.539086
-0.736681
-0.754663
-0.647347
-0.679435
-0.693814
-0.721127
-0.728052
-1.01213
-0.998325
-0.945695
-0.877254
-0.798665
-0.717936
-0.635006
-0.555574
-0.485958
-0.438715
-0.397478
-0.405486
-0.608832
-0.877799
-1.02278
-1.02462
-1.02998
-1.01369
-0.993276
-0.976489
-1.02331
-1.01113
-0.960705
-0.893278
-0.815889
-0.735244
-0.653053
-0.574569
-0.503778
-0.459118
-0.427897
-0.413945
-0.654845
-1.01499
-1.47077
-1.7634
-1.8491
-1.8057
-1.70581
-1.6252
-1.02918
-1.01875
-0.971195
-0.904894
-0.82813
-0.747897
-0.666344
-0.588268
-0.515858
-0.465167
-0.444469
-0.418916
-0.651804
-1.03334
-1.57071
-1.95709
-2.03255
-1.92506
-1.82384
-1.75496
-1.02879
-1.02012
-0.975971
-0.911035
-0.834836
-0.755021
-0.673461
-0.594636
-0.519626
-0.459777
-0.436632
-0.403962
-0.554629
-0.75769
-1.00228
-1.14668
-1.11663
-1.02991
-0.908301
-0.804971
-1.02086
-1.01356
-0.973442
-0.910119
-0.834906
-0.75557
-0.673354
-0.592312
-0.513189
-0.441637
-0.401147
-0.322775
-0.315166
-0.168926
-0.00556171
0.132379
0.286368
0.40613
0.474825
0.512118
-1.00326
-0.996476
-0.962047
-0.901529
-0.82768
-0.748889
-0.665937
-0.582046
-0.497926
-0.406698
-0.338673
-0.208114
-0.0201494
0.339268
0.73678
1.05129
1.27898
1.4206
1.48758
1.51086
-0.973133
-0.966766
-0.940442
-0.884908
-0.813393
-0.735446
-0.652187
-0.565058
-0.475946
-0.366923
-0.262375
-0.129295
0.170897
0.572287
1.00349
1.36511
1.63145
1.79006
1.85836
1.87551
-0.93005
-0.925685
-0.909048
-0.859801
-0.79178
-0.715661
-0.633873
-0.545051
-0.452222
-0.34018
-0.217216
-0.118099
0.145186
0.503626
0.886529
1.21224
1.46902
1.62701
1.69929
1.72052
-0.883822
-0.883002
-0.87298
-0.82892
-0.764768
-0.69156
-0.613917
-0.527081
-0.435716
-0.335958
-0.21487
-0.145673
0.0248053
0.309887
0.615086
0.867529
1.07054
1.2045
1.27047
1.29466
-0.835721
-0.838459
-0.828455
-0.790783
-0.732744
-0.665372
-0.593319
-0.514868
-0.430211
-0.342233
-0.230161
-0.162147
-0.0554627
0.149769
0.384161
0.568368
0.710767
0.812116
0.861345
0.877745
-0.764995
-0.769188
-0.761714
-0.734888
-0.688315
-0.632523
-0.570916
-0.505146
-0.427431
-0.349396
-0.244818
-0.167765
-0.0954741
0.0446142
0.226849
0.357478
0.455956
0.526556
0.558447
0.564597
-0.679335
-0.680702
-0.676937
-0.661405
-0.630122
-0.591049
-0.545014
-0.493676
-0.428671
-0.354356
-0.257523
-0.17238
-0.126123
-0.0259671
0.10552
0.187049
0.253395
0.300267
0.317998
0.324163
-0.598223
-0.598813
-0.596275
-0.587877
-0.570504
-0.54599
-0.5154
-0.4794
-0.43095
-0.362593
-0.275105
-0.192208
-0.15206
-0.0827832
0.00286449
0.0556002
0.101447
0.137499
0.151374
0.156824
-0.538585
-0.538475
-0.53657
-0.532266
-0.523706
-0.509255
-0.490172
-0.464391
-0.427054
-0.3832
-0.305513
-0.228022
-0.180803
-0.148372
-0.090802
-0.0493481
-0.0129674
0.0139663
0.0304731
0.0348321
-0.50727
-0.506893
-0.506105
-0.50421
-0.500108
-0.492572
-0.483025
-0.468484
-0.447876
-0.420379
-0.352012
-0.28235
-0.22752
-0.211925
-0.169007
-0.134486
-0.104469
-0.0858571
-0.0738423
-0.0724903
-0.501593
-0.501359
-0.501228
-0.501182
-0.499541
-0.497846
-0.497549
-0.496822
-0.500312
-0.492825
-0.450024
-0.373666
-0.304225
-0.277277
-0.242276
-0.211202
-0.184013
-0.169478
-0.16373
-0.164501
-0.511277
-0.511355
-0.511972
-0.513471
-0.515818
-0.519999
-0.529997
-0.54756
-0.581698
-0.611261
-0.620304
-0.529795
-0.428681
-0.36944
-0.321374
-0.282433
-0.248742
-0.226213
-0.221681
-0.22532
-0.524857
-0.525471
-0.527242
-0.530552
-0.536863
-0.548658
-0.571516
-0.613076
-0.685287
-0.775329
-0.85379
-0.757978
-0.619693
-0.524235
-0.433096
-0.36054
-0.301158
-0.2748
-0.268395
-0.274874
-0.529455
-0.530651
-0.533579
-0.539594
-0.549698
-0.569172
-0.60595
-0.673875
-0.792533
-0.958951
-1.11237
-1.01449
-0.853537
-0.70801
-0.561358
-0.450233
-0.388739
-0.361924
-0.356072
-0.360093
-0.513674
-0.515876
-0.5187
-0.526112
-0.540466
-0.565241
-0.610504
-0.696611
-0.845585
-1.05312
-1.3323
-1.17133
-0.982821
-0.80301
-0.649057
-0.550619
-0.506328
-0.481756
-0.476984
-0.476445
-0.472974
-0.475049
-0.478067
-0.484047
-0.497859
-0.523681
-0.572036
-0.660753
-0.815382
-1.05026
-1.25591
-1.14259
-0.941707
-0.769977
-0.665161
-0.607871
-0.567298
-0.567167
-0.562198
-0.559513
-0.407212
-0.408881
-0.411824
-0.416564
-0.427315
-0.449479
-0.490895
-0.56717
-0.700141
-0.890986
-1.02538
-0.921362
-0.758531
-0.673166
-0.624396
-0.587939
-0.57648
-0.577267
-0.575243
-0.572749
-0.324143
-0.325248
-0.32718
-0.330774
-0.337821
-0.35296
-0.382028
-0.436521
-0.530289
-0.657643
-0.739476
-0.644725
-0.557401
-0.53451
-0.532119
-0.525066
-0.532423
-0.532968
-0.532113
-0.528116
-0.236059
-0.236616
-0.237473
-0.238952
-0.242443
-0.250538
-0.266525
-0.297486
-0.350629
-0.422613
-0.465878
-0.386628
-0.37367
-0.392135
-0.404486
-0.434164
-0.442274
-0.444529
-0.443528
-0.442293
-0.154681
-0.15482
-0.154954
-0.154948
-0.155638
-0.158181
-0.163525
-0.17478
-0.193351
-0.215702
-0.21805
-0.212401
-0.240387
-0.264717
-0.29867
-0.327497
-0.333727
-0.337404
-0.339222
-0.339424
-0.0878707
-0.0877217
-0.0875379
-0.0868644
-0.0861185
-0.0855576
-0.0847045
-0.0840505
-0.081855
-0.0673224
-0.0691126
-0.105329
-0.143647
-0.179451
-0.213263
-0.232564
-0.239123
-0.24406
-0.246317
-0.246712
-0.0388609
-0.0385752
-0.0383554
-0.0376437
-0.0365691
-0.0350077
-0.0320597
-0.0273691
-0.0197327
-0.003849
0.00211966
-0.0421756
-0.0837117
-0.116301
-0.143995
-0.158968
-0.166288
-0.170284
-0.171607
-0.172095
-0.00662765
-0.0063292
-0.00618062
-0.00574538
-0.00487503
-0.00347332
-0.000628543
0.00393371
0.0108129
0.0207094
0.0238891
-0.0139224
-0.0485931
-0.0743244
-0.0954339
-0.104738
-0.11022
-0.113316
-0.114733
-0.115311
0.012086
0.0123305
0.0123992
0.0124704
0.0129594
0.0138344
0.0158216
0.0190152
0.0236169
0.0284966
0.0277376
-0.0004943
-0.0270733
-0.0461123
-0.061364
-0.0688867
-0.0725063
-0.0742873
-0.0752546
-0.0756811
0.0210803
0.0212564
0.0212567
0.0210415
0.0211132
0.0214046
0.0224043
0.0241403
0.0265771
0.0281493
0.025082
0.00524792
-0.0139019
-0.0265227
-0.0402265
-0.0446674
-0.0471266
-0.0482275
-0.0488721
-0.0491511
0.0234503
0.0235675
0.0235111
0.0231415
0.0228954
0.022733
0.0229397
0.0235316
0.0243994
0.0241358
0.0202194
0.00658362
-0.00704343
-0.0165273
-0.0241955
-0.0274373
-0.0295014
-0.0304355
-0.0310082
-0.0312325
0.0215243
0.0215999
0.021519
0.021116
0.0207175
0.0203134
0.0200471
0.0199279
0.019834
0.0187368
0.0150256
0.00590562
-0.00328329
-0.00971682
-0.0144955
-0.017124
-0.0186028
-0.0192024
-0.0195026
-0.0196037
0.0169465
0.0169949
0.0169194
0.0165793
0.0161846
0.0157545
0.0153441
0.0149623
0.0144813
0.0132337
0.0102737
0.0044241
-0.00136413
-0.00534462
-0.00827483
-0.0100034
-0.0109059
-0.0111833
-0.0113189
-0.0114002
0.0107997
0.0108337
0.0107909
0.0105566
0.0102637
0.00995061
0.00960382
0.00927746
0.00881713
0.00789608
0.00602086
0.00274299
-0.000485536
-0.0026558
-0.00417329
-0.00488375
-0.00524908
-0.00544514
-0.00559324
-0.00566979
0.00379108
0.00380905
0.0038129
0.00370266
0.003577
0.00344985
0.00329612
0.00320476
0.00299261
0.00268391
0.00202444
0.000935697
-0.000182639
-0.00101687
-0.0017051
-0.00196387
-0.00199035
-0.0019222
-0.00183228
-0.00178924
-1.56002
-0.66664
-0.392265
-0.100643
0.0969184
0.26826
0.412899
0.559753
0.716037
0.792872
-0.533889
-0.102127
-0.0718931
0.125781
0.264189
0.387901
0.495734
0.590381
0.622621
0.577765
-0.123521
0.104553
0.150901
0.292379
0.388563
0.476507
0.549178
0.603228
0.608333
0.620103
0.124657
0.280098
0.317091
0.428281
0.488837
0.552255
0.600762
0.634986
0.645382
0.66827
0.317765
0.424627
0.454433
0.53095
0.575673
0.620817
0.655127
0.680423
0.691143
0.722011
0.466225
0.540471
0.570986
0.618616
0.655977
0.688111
0.713811
0.735006
0.74991
0.777682
0.590497
0.643815
0.670281
0.700418
0.729632
0.7545
0.775313
0.794938
0.810238
0.836431
0.697214
0.736141
0.757919
0.779578
0.8015
0.821657
0.839483
0.857893
0.872895
0.896463
0.793499
0.822832
0.840321
0.856234
0.873058
0.88957
0.905359
0.922528
0.936128
0.958426
0.882956
0.904005
0.919319
0.93286
0.946779
0.960822
0.97442
0.989089
1.00064
1.02031
0.969584
0.985525
0.999569
1.01162
1.02374
1.03546
1.04663
1.05834
1.06601
1.08283
1.05528
1.06827
1.0821
1.09382
1.10442
1.11419
1.12297
1.13122
1.1348
1.14608
1.14476
1.15575
1.16924
1.17845
1.18589
1.19307
1.20027
1.20688
1.20787
1.2153
1.24325
1.24798
1.25602
1.26051
1.26377
1.26824
1.27424
1.28202
1.28584
1.29573
1.35658
1.34286
1.33541
1.32976
1.32708
1.32848
1.33501
1.34744
1.36217
1.39181
1.47739
1.42173
1.39085
1.37377
1.36564
1.36566
1.37431
1.39376
1.42582
1.49498
)
;

boundaryField
{
    wall-4
    {
        type            zeroGradient;
    }
    pressure-outlet-7
    {
        type            fixedValue;
        value           uniform 0;
    }
    velocity-inlet-6
    {
        type            zeroGradient;
    }
    velocity-inlet-5
    {
        type            zeroGradient;
    }
    frontAndBackPlanes
    {
        type            empty;
    }
}


// ************************************************************************* //
