/*--------------------------------*- C++ -*----------------------------------*\
| =========                 |                                                 |
| \\      /  F ield         | OpenFOAM: The Open Source CFD Toolbox           |
|  \\    /   O peration     | Version:  4.0                                   |
|   \\  /    A nd           | Web:      www.OpenFOAM.org                      |
|    \\/     M anipulation  |                                                 |
\*---------------------------------------------------------------------------*/
FoamFile
{
    version     2.0;
    format      ascii;
    class       volVectorField;
    location    "22";
    object      U;
}
// * * * * * * * * * * * * * * * * * * * * * * * * * * * * * * * * * * * * * //

dimensions      [0 1 -1 0 0 0 0];

internalField   nonuniform List<vector> 
2200
(
(0.878841 -0.0304102 0)
(1.00578 -0.0512955 0)
(1.00325 -0.0353963 0)
(1.00027 -0.024474 0)
(1.00001 -0.0166937 0)
(1.00012 -0.0106899 0)
(0.99996 -0.0068043 0)
(0.999819 -0.00419968 0)
(0.999806 -0.00228493 0)
(1.00017 -0.000803504 0)
(1.00006 0.00102295 0)
(0.999829 0.00249105 0)
(0.999807 0.00437092 0)
(0.999955 0.00697573 0)
(1.00012 0.0107988 0)
(0.999989 0.0167879 0)
(1.00029 0.024559 0)
(1.00334 0.0354277 0)
(1.0058 0.0513235 0)
(0.878859 0.0304286 0)
(0.71195 -0.0327417 0)
(0.99661 -0.0629693 0)
(1.03323 -0.0561551 0)
(1.02485 -0.0464592 0)
(1.01587 -0.0362373 0)
(1.00964 -0.0266799 0)
(1.00595 -0.018434 0)
(1.00392 -0.0115624 0)
(1.0028 -0.00603072 0)
(1.00218 -0.00158722 0)
(1.00218 0.00223175 0)
(1.00272 0.00666267 0)
(1.00386 0.012096 0)
(1.00588 0.018885 0)
(1.00956 0.0271357 0)
(1.01584 0.0366357 0)
(1.02473 0.0467724 0)
(1.03298 0.056469 0)
(0.996465 0.0631331 0)
(0.711713 0.0327918 0)
(0.53582 -0.023873 0)
(0.969979 -0.0567887 0)
(1.05631 -0.0545439 0)
(1.0519 -0.0484477 0)
(1.03584 -0.0401466 0)
(1.02433 -0.0320939 0)
(1.01599 -0.0238734 0)
(1.01045 -0.0161285 0)
(1.00711 -0.00894238 0)
(1.00559 -0.0024086 0)
(1.00552 0.00363082 0)
(1.00697 0.0101426 0)
(1.01032 0.017225 0)
(1.01581 0.0248662 0)
(1.02412 0.0328651 0)
(1.03554 0.0407381 0)
(1.0516 0.0488941 0)
(1.05607 0.054741 0)
(0.969431 0.0570564 0)
(0.535071 0.0239287 0)
(0.39288 -0.0135355 0)
(0.91221 -0.0462364 0)
(1.05768 -0.0465718 0)
(1.06967 -0.0438777 0)
(1.0547 -0.0374268 0)
(1.03924 -0.0306409 0)
(1.02763 -0.0240162 0)
(1.01908 -0.0171429 0)
(1.01349 -0.0100619 0)
(1.01071 -0.00281372 0)
(1.01065 0.00450674 0)
(1.01332 0.0116536 0)
(1.01872 0.0185609 0)
(1.02713 0.0251506 0)
(1.03857 0.0315882 0)
(1.05406 0.0382737 0)
(1.06898 0.0446313 0)
(1.05668 0.0471657 0)
(0.911008 0.0465605 0)
(0.391429 0.0136205 0)
(0.308949 -0.00442059 0)
(0.847429 -0.0321072 0)
(1.04993 -0.0396969 0)
(1.07993 -0.0380308 0)
(1.06846 -0.0331905 0)
(1.05139 -0.0273954 0)
(1.03801 -0.0221894 0)
(1.02805 -0.0163272 0)
(1.02127 -0.00976586 0)
(1.01769 -0.00262087 0)
(1.01755 0.0049859 0)
(1.02088 0.0118996 0)
(1.02744 0.0181727 0)
(1.03715 0.0238419 0)
(1.0506 0.0288711 0)
(1.06759 0.0344204 0)
(1.07884 0.0390525 0)
(1.04839 0.0405355 0)
(0.845028 0.0324944 0)
(0.306649 0.00452053 0)
(0.266284 0.000122484 0)
(0.790574 -0.0195546 0)
(1.0337 -0.030593 0)
(1.08382 -0.0313068 0)
(1.07767 -0.0283351 0)
(1.06102 -0.0236419 0)
(1.04697 -0.019168 0)
(1.03574 -0.0143446 0)
(1.02783 -0.00872836 0)
(1.02363 -0.00207223 0)
(1.02334 0.00519682 0)
(1.02709 0.0116109 0)
(1.03467 0.0169033 0)
(1.04593 0.0213797 0)
(1.05969 0.0255054 0)
(1.07623 0.0298535 0)
(1.08212 0.0324917 0)
(1.03137 0.0314778 0)
(0.787002 0.0199562 0)
(0.263206 -3.35259e-05 0)
(0.243421 0.00120625 0)
(0.742503 -0.0116541 0)
(1.015 -0.0234452 0)
(1.08356 -0.0251063 0)
(1.08242 -0.0232755 0)
(1.06742 -0.0196168 0)
(1.05383 -0.0160147 0)
(1.04282 -0.0117692 0)
(1.03473 -0.00689772 0)
(1.02994 -0.00106358 0)
(1.0296 0.00499085 0)
(1.03379 0.010597 0)
(1.0415 0.0151012 0)
(1.05188 0.0189157 0)
(1.06541 0.0220319 0)
(1.08021 0.0253238 0)
(1.08086 0.0267482 0)
(1.01113 0.0246153 0)
(0.737126 0.0121661 0)
(0.239334 -0.00109636 0)
(0.230232 0.00115145 0)
(0.701707 -0.00739678 0)
(0.995456 -0.0193449 0)
(1.08134 -0.0213424 0)
(1.08513 -0.0196347 0)
(1.07174 -0.0166091 0)
(1.05864 -0.0133769 0)
(1.04846 -0.0093807 0)
(1.04086 -0.00494127 0)
(1.03617 6.52692e-05 0)
(1.03577 0.00485855 0)
(1.03967 0.00949979 0)
(1.04649 0.0133851 0)
(1.05636 0.0166866 0)
(1.06924 0.0196155 0)
(1.08207 0.0220825 0)
(1.07766 0.023332 0)
(0.990072 0.0207798 0)
(0.694184 0.00800709 0)
(0.224993 -0.00100713 0)
(0.222273 0.000714025 0)
(0.668661 -0.00452545 0)
(0.976636 -0.0156433 0)
(1.07896 -0.0178068 0)
(1.08755 -0.0163114 0)
(1.07509 -0.0138926 0)
(1.06178 -0.0108552 0)
(1.05169 -0.00730491 0)
(1.04421 -0.00338267 0)
(1.03963 0.000888259 0)
(1.03889 0.00510689 0)
(1.04222 0.00900202 0)
(1.04883 0.0123555 0)
(1.05854 0.0155096 0)
(1.0713 0.0175813 0)
(1.08337 0.0194277 0)
(1.07375 0.0203887 0)
(0.969027 0.0173663 0)
(0.658618 0.00525518 0)
(0.215594 -0.000529452 0)
(0.218158 0.000383612 0)
(0.646176 -0.00189328 0)
(0.960545 -0.0105937 0)
(1.07638 -0.0129002 0)
(1.08998 -0.0120162 0)
(1.07802 -0.0101345 0)
(1.0643 -0.00795782 0)
(1.05356 -0.00516675 0)
(1.04577 -0.00184375 0)
(1.04115 0.00193947 0)
(1.04027 0.00602602 0)
(1.04346 0.00924731 0)
(1.05024 0.0117833 0)
(1.05972 0.0134315 0)
(1.07318 0.0148223 0)
(1.08445 0.0159867 0)
(1.06936 0.0160075 0)
(0.950067 0.0126495 0)
(0.633162 0.00279886 0)
(0.209693 -0.000184511 0)
(0.216984 0.000135475 0)
(0.633676 -0.000217536 0)
(0.947505 -0.00576582 0)
(1.07344 -0.00783734 0)
(1.09204 -0.0075419 0)
(1.08127 -0.00605626 0)
(1.06744 -0.0043918 0)
(1.05644 -0.00248776 0)
(1.04818 1.29693e-05 0)
(1.04315 0.00304004 0)
(1.04201 0.00657237 0)
(1.04503 0.0088426 0)
(1.05182 0.0104493 0)
(1.06224 0.0110929 0)
(1.07545 0.012011 0)
(1.08465 0.012429 0)
(1.06387 0.0115741 0)
(0.93394 0.00819003 0)
(0.61725 0.00127203 0)
(0.206246 5.06623e-05 0)
(0.217304 -2.97261e-06 0)
(0.628234 0.000488591 0)
(0.939099 -0.00247665 0)
(1.07111 -0.00443766 0)
(1.09382 -0.00447702 0)
(1.08443 -0.00324668 0)
(1.07107 -0.00175186 0)
(1.06047 2.40115e-05 0)
(1.05235 0.00228183 0)
(1.04719 0.00474842 0)
(1.04562 0.00744429 0)
(1.04798 0.00902464 0)
(1.05399 0.00993638 0)
(1.06327 0.0108219 0)
(1.07553 0.0103772 0)
(1.08386 0.0100326 0)
(1.05853 0.00882758 0)
(0.921846 0.00556288 0)
(0.608103 0.000877598 0)
(0.204132 0.000177466 0)
(0.218529 1.12744e-06 0)
(0.627529 0.0008956 0)
(0.934423 -0.000522434 0)
(1.06919 -0.00199003 0)
(1.09463 -0.00203515 0)
(1.08623 -0.00131522 0)
(1.07342 -0.000284305 0)
(1.0632 0.00154385 0)
(1.05552 0.00382472 0)
(1.05046 0.00637382 0)
(1.04841 0.00881824 0)
(1.04994 0.0102975 0)
(1.05501 0.0110147 0)
(1.06303 0.0111345 0)
(1.07477 0.0102343 0)
(1.08172 0.00957742 0)
(1.05271 0.00792869 0)
(0.91156 0.00458944 0)
(0.600924 0.00105228 0)
(0.201707 0.000255752 0)
(0.220276 0.000234998 0)
(0.628212 0.00119286 0)
(0.930955 0.000857843 0)
(1.06753 -0.000176199 0)
(1.09465 -0.000315943 0)
(1.0867 0.000202735 0)
(1.07423 0.00125392 0)
(1.06411 0.00318717 0)
(1.05637 0.00551743 0)
(1.05113 0.00834862 0)
(1.04869 0.0107688 0)
(1.04975 0.012309 0)
(1.05446 0.0125381 0)
(1.06212 0.0118848 0)
(1.07315 0.0107444 0)
(1.07832 0.00938417 0)
(1.04671 0.00703507 0)
(0.903123 0.00378497 0)
(0.595395 0.001057 0)
(0.199401 0.000253436 0)
(0.223439 0.000414536 0)
(0.631007 0.00159244 0)
(0.930451 0.00235949 0)
(1.06628 0.00180228 0)
(1.09452 0.00159387 0)
(1.08759 0.00191719 0)
(1.07576 0.00287404 0)
(1.06591 0.00483702 0)
(1.05808 0.00737118 0)
(1.05235 0.0105043 0)
(1.04922 0.0129692 0)
(1.04949 0.0145213 0)
(1.05329 0.0146307 0)
(1.06012 0.0137417 0)
(1.06999 0.0122414 0)
(1.07352 0.01004 0)
(1.03968 0.00704984 0)
(0.894731 0.00360139 0)
(0.589654 0.00115773 0)
(0.196843 0.000270366 0)
(0.226859 0.000423328 0)
(0.63509 0.00195846 0)
(0.931634 0.0035613 0)
(1.06536 0.00322433 0)
(1.09469 0.00303788 0)
(1.08925 0.00342625 0)
(1.07856 0.0049074 0)
(1.06933 0.0073074 0)
(1.06152 0.010243 0)
(1.05516 0.0136365 0)
(1.05102 0.016068 0)
(1.05011 0.0174402 0)
(1.0526 0.0172799 0)
(1.05819 0.0161437 0)
(1.06622 0.0139242 0)
(1.06767 0.0109752 0)
(1.03169 0.00730988 0)
(0.886547 0.00381015 0)
(0.584248 0.00147537 0)
(0.19414 0.000334622 0)
(0.232084 0.000507141 0)
(0.643433 0.00248798 0)
(0.935068 0.00463006 0)
(1.0655 0.00510096 0)
(1.09496 0.00509599 0)
(1.09112 0.0055269 0)
(1.08177 0.00729207 0)
(1.07323 0.010059 0)
(1.06548 0.013548 0)
(1.05854 0.017242 0)
(1.05333 0.0197392 0)
(1.05123 0.0207816 0)
(1.0522 0.0202562 0)
(1.05627 0.0186663 0)
(1.06191 0.0161277 0)
(1.06121 0.0126595 0)
(1.02348 0.00869517 0)
(0.878348 0.0048489 0)
(0.577466 0.00204031 0)
(0.190335 0.000441754 0)
(0.236902 0.000627497 0)
(0.649771 0.00287645 0)
(0.939018 0.00556017 0)
(1.0669 0.00672906 0)
(1.09602 0.00736067 0)
(1.09338 0.00853904 0)
(1.08515 0.0109142 0)
(1.07687 0.0142665 0)
(1.0688 0.0182324 0)
(1.06088 0.0221429 0)
(1.05433 0.0246264 0)
(1.05082 0.0251621 0)
(1.0502 0.0241172 0)
(1.05252 0.0217942 0)
(1.0559 0.0185144 0)
(1.05292 0.0142105 0)
(1.01334 0.0096303 0)
(0.86819 0.00560764 0)
(0.569055 0.00251182 0)
(0.185578 0.00053958 0)
(0.244936 0.000854844 0)
(0.662553 0.00395313 0)
(0.947197 0.0077735 0)
(1.07008 0.0099306 0)
(1.09805 0.0112182 0)
(1.09651 0.012954 0)
(1.08913 0.0158979 0)
(1.08099 0.0196904 0)
(1.07226 0.0239562 0)
(1.06304 0.0278419 0)
(1.05489 0.0299673 0)
(1.04979 0.0296401 0)
(1.04768 0.0276023 0)
(1.04824 0.0244066 0)
(1.04957 0.020402 0)
(1.04462 0.015921 0)
(1.00398 0.0113349 0)
(0.858817 0.00695833 0)
(0.559588 0.00310757 0)
(0.179747 0.000642035 0)
(0.253088 0.0011133 0)
(0.674114 0.00467134 0)
(0.95598 0.00939155 0)
(1.07542 0.0125896 0)
(1.10246 0.0154168 0)
(1.10134 0.0185277 0)
(1.09435 0.0223926 0)
(1.08592 0.0269025 0)
(1.07621 0.0316268 0)
(1.06537 0.0354203 0)
(1.05516 0.0369127 0)
(1.04799 0.0355722 0)
(1.04398 0.0324527 0)
(1.04248 0.0283509 0)
(1.04179 0.0235136 0)
(1.03475 0.0181327 0)
(0.991933 0.0127716 0)
(0.845141 0.00799042 0)
(0.54682 0.00365736 0)
(0.172561 0.000755839 0)
(0.266086 0.00146663 0)
(0.693931 0.006664 0)
(0.970692 0.0130693 0)
(1.08426 0.0177557 0)
(1.10907 0.0214373 0)
(1.10795 0.0255168 0)
(1.10076 0.0304992 0)
(1.09151 0.035874 0)
(1.08029 0.0409786 0)
(1.06723 0.0445612 0)
(1.05455 0.045129 0)
(1.04508 0.0424463 0)
(1.03919 0.0378782 0)
(1.03582 0.0324622 0)
(1.03326 0.0266585 0)
(1.0247 0.0210557 0)
(0.98099 0.0155507 0)
(0.833653 0.0101444 0)
(0.533857 0.00456936 0)
(0.164363 0.000902638 0)
(0.281004 0.00205942 0)
(0.716186 0.00799096 0)
(0.988062 0.0161851 0)
(1.09604 0.0224929 0)
(1.11856 0.0280732 0)
(1.11664 0.0343806 0)
(1.10848 0.0407734 0)
(1.09771 0.047193 0)
(1.08434 0.0527815 0)
(1.06868 0.0560532 0)
(1.05322 0.0553808 0)
(1.04116 0.0511097 0)
(1.03303 0.0450917 0)
(1.02772 0.0385968 0)
(1.0235 0.0318587 0)
(1.01296 0.0250845 0)
(0.965922 0.018425 0)
(0.813793 0.011915 0)
(0.514072 0.00539694 0)
(0.153574 0.00107818 0)
(0.302639 0.00294958 0)
(0.746395 0.0118979 0)
(1.01135 0.0220138 0)
(1.11207 0.0303949 0)
(1.13145 0.0376441 0)
(1.12794 0.0456268 0)
(1.11784 0.0535242 0)
(1.10458 0.0611352 0)
(1.08817 0.06709 0)
(1.06902 0.0697376 0)
(1.05001 0.067676 0)
(1.03509 0.0617295 0)
(1.0249 0.0539876 0)
(1.01778 0.0456337 0)
(1.01192 0.0374818 0)
(0.999878 0.0298113 0)
(0.951253 0.0223634 0)
(0.798113 0.0149038 0)
(0.49601 0.00667252 0)
(0.142149 0.00119723 0)
(0.333204 0.00408231 0)
(0.787771 0.0147279 0)
(1.04216 0.0291287 0)
(1.13344 0.0402789 0)
(1.14841 0.0500082 0)
(1.14195 0.0607378 0)
(1.12862 0.0707105 0)
(1.11187 0.0792659 0)
(1.09171 0.0852369 0)
(1.06867 0.0869369 0)
(1.04617 0.0829636 0)
(1.02828 0.0746289 0)
(1.01547 0.0648816 0)
(1.00633 0.0551102 0)
(0.998733 0.0456265 0)
(0.984316 0.0365898 0)
(0.930707 0.0274967 0)
(0.768386 0.0178609 0)
(0.465107 0.00766945 0)
(0.126325 0.0013713 0)
(0.369699 0.00801613 0)
(0.837628 0.0244183 0)
(1.08079 0.0412154 0)
(1.15992 0.0558594 0)
(1.16959 0.0679588 0)
(1.15846 0.0818313 0)
(1.14088 0.0927184 0)
(1.11956 0.101647 0)
(1.09468 0.106968 0)
(1.0668 0.106889 0)
(1.03972 0.100435 0)
(1.01843 0.0898745 0)
(1.00353 0.0781033 0)
(0.992615 0.0662045 0)
(0.98322 0.0549588 0)
(0.966337 0.0440794 0)
(0.908854 0.0332169 0)
(0.744901 0.0220041 0)
(0.440612 0.00971332 0)
(0.112054 0.00134268 0)
(0.453596 0.0115975 0)
(0.91628 0.0343954 0)
(1.13179 0.0607642 0)
(1.19277 0.0786304 0)
(1.19555 0.0953423 5.54306e-35)
(1.17715 0.11057 -4.18352e-35)
(1.1536 0.121697 0)
(1.12649 0.130151 0)
(1.09623 0.13373 0)
(1.06348 0.131172 0)
(1.03256 0.121842 0)
(1.00828 0.108128 0)
(0.990196 0.0936507 0)
(0.976795 0.0798842 0)
(0.965299 0.0669396 0)
(0.945049 0.0546993 0)
(0.880245 0.041823 0)
(0.701012 0.0273012 0)
(0.390305 0.0103251 0)
(0.0880778 0.00111538 0)
(0.520144 0.0266714 -9.02009e-21)
(1.00601 0.0588434 6.16532e-21)
(1.18756 0.0931717 0)
(1.22874 0.114645 6.25082e-23)
(1.22204 0.134265 -5.06527e-23)
(1.19539 0.148929 4.41379e-35)
(1.16524 0.159115 0)
(1.13197 0.165812 4.45852e-21)
(1.09579 0.166973 -1.61322e-20)
(1.057 0.161406 3.59177e-21)
(1.02018 0.148427 0)
(0.99108 0.131729 -1.20404e-20)
(0.970626 0.115324 -1.512e-20)
(0.954965 0.0994079 2.66012e-20)
(0.940052 0.0845037 -2.14219e-20)
(0.913752 0.06946 0)
(0.837077 0.052948 -8.26599e-21)
(0.644053 0.0347029 0)
(0.341864 0.0156797 -4.46422e-20)
(0.0704645 0.00195938 5.28438e-20)
(0.548487 0.0547066 2.01629e-22)
(1.05823 0.102588 -4.94298e-20)
(1.23127 0.144998 1.24462e-20)
(1.26166 0.163498 2.00233e-20)
(1.24594 0.182433 6.39172e-22)
(1.21152 0.194986 -2.55282e-22)
(1.17478 0.20336 0)
(1.13511 0.207904 0)
(1.09253 0.20668 2.51944e-20)
(1.04758 0.198331 0)
(1.00598 0.182774 4.11676e-20)
(0.973164 0.164297 1.29177e-20)
(0.946757 0.145534 3.44677e-22)
(0.925629 0.128324 -2.99155e-20)
(0.9069 0.112414 0)
(0.876991 0.0975139 0)
(0.79845 0.0779805 -1.3984e-19)
(0.613407 0.0562181 3.50995e-19)
(0.329608 0.0266519 -2.08618e-19)
(0.0700183 0.00683236 -2.47628e-19)
(0.551484 0.0797254 8.28463e-20)
(1.08704 0.1607 -2.44643e-20)
(1.26371 0.207573 -6.66217e-21)
(1.28792 0.223161 -3.81526e-20)
(1.26458 0.238865 1.3709e-20)
(1.22383 0.247335 5.94441e-21)
(1.18109 0.252408 2.1485e-21)
(1.13531 0.253883 0)
(1.08667 0.24971 -5.2033e-20)
(1.03574 0.238464 5.93827e-20)
(0.987593 0.220389 -1.12677e-19)
(0.948141 0.19884 5.51574e-20)
(0.919645 0.179521 -4.1143e-20)
(0.897219 0.16192 8.98897e-20)
(0.875309 0.14592 0)
(0.843707 0.13037 -3.55191e-20)
(0.768611 0.111631 0)
(0.598583 0.0812266 2.02072e-19)
(0.33312 0.0452874 -4.79589e-19)
(0.0823481 0.0114291 3.01006e-19)
(0.539588 0.111745 -3.89296e-19)
(1.10132 0.219692 1.5573e-19)
(1.28341 0.27483 2.52947e-20)
(1.30552 0.287957 0)
(1.27704 0.299957 2.14032e-20)
(1.23158 0.303703 -2.35466e-20)
(1.18368 0.304857 -2.17856e-21)
(1.13244 0.302608 0)
(1.07846 0.294765 3.6677e-20)
(1.02225 0.279841 -4.06764e-20)
(0.969589 0.257818 9.9171e-20)
(0.927885 0.235508 0)
(0.894478 0.215201 -8.65914e-20)
(0.867234 0.197572 4.75732e-20)
(0.844134 0.181481 1.30229e-19)
(0.813685 0.166336 -1.14594e-19)
(0.74424 0.145604 1.89895e-19)
(0.58971 0.110939 -4.21956e-19)
(0.344687 0.0652365 2.67887e-19)
(0.0944821 0.0186808 -3.36064e-19)
(0.522437 0.13592 2.39076e-19)
(1.10328 0.274749 -1.76153e-19)
(1.29304 0.342358 7.91632e-20)
(1.3148 0.353568 -1.09725e-19)
(1.2828 0.36227 7.47198e-20)
(1.23409 0.361666 -1.29058e-20)
(1.18225 0.358875 3.67707e-21)
(1.12684 0.352623 -2.16466e-20)
(1.06856 0.34084 -3.63243e-20)
(1.00765 0.322186 -8.74965e-20)
(0.95078 0.298247 -2.14176e-19)
(0.904786 0.273436 -7.27287e-20)
(0.870294 0.251556 2.70726e-21)
(0.843819 0.233216 -1.72439e-19)
(0.819608 0.217132 -6.33767e-21)
(0.788885 0.200412 1.68568e-19)
(0.724699 0.17878 -5.25153e-20)
(0.583265 0.140455 -3.06918e-20)
(0.35281 0.0859655 0)
(0.102483 0.0257742 7.21466e-19)
(0.502999 0.157406 0)
(1.0946 0.325638 5.43308e-20)
(1.2947 0.40667 3.79908e-20)
(1.31776 0.4176 -1.2217e-20)
(1.28326 0.424075 -9.01026e-20)
(1.2322 0.419499 2.10691e-20)
(1.17738 0.412962 -1.44032e-21)
(1.11872 0.402756 3.98579e-20)
(1.05669 0.387178 -2.21411e-20)
(0.991691 0.364815 3.77235e-20)
(0.93056 0.33685 1.15627e-19)
(0.881645 0.308778 1.61331e-19)
(0.844825 0.285816 -1.01165e-19)
(0.815838 0.266386 1.87195e-19)
(0.793425 0.249827 -1.5057e-19)
(0.766847 0.234391 0)
(0.709609 0.212222 -4.02693e-19)
(0.578075 0.170239 5.41309e-19)
(0.356788 0.105485 4.09871e-20)
(0.106606 0.0323118 -7.65255e-19)
(0.487268 0.178112 -5.51729e-21)
(1.0847 0.374776 -3.7007e-19)
(1.29138 0.467892 -2.86177e-19)
(1.3156 0.478895 2.39512e-19)
(1.27897 0.483872 -5.41067e-20)
(1.2264 0.475934 3.03976e-20)
(1.16942 0.46608 -1.59573e-20)
(1.10815 0.452271 -9.98095e-22)
(1.04293 0.433084 -7.59173e-20)
(0.974539 0.407293 7.72659e-22)
(0.91139 0.375943 -1.26258e-19)
(0.862842 0.347091 -1.72006e-19)
(0.827195 0.322406 1.14218e-19)
(0.800253 0.3019 -6.73568e-20)
(0.77491 0.284326 1.64115e-19)
(0.745536 0.265993 0)
(0.689596 0.241624 -2.49854e-19)
(0.565494 0.197052 3.69619e-19)
(0.353313 0.122771 7.08027e-19)
(0.106411 0.0371928 -8.31308e-19)
(0.472137 0.196009 -7.02316e-19)
(1.07047 0.41994 3.55001e-19)
(1.28433 0.525798 2.78335e-19)
(1.30983 0.537452 -2.59772e-19)
(1.27151 0.541295 1.12113e-20)
(1.21784 0.530288 7.98531e-20)
(1.15915 0.517532 1.99246e-21)
(1.09586 0.500469 -1.47172e-20)
(1.02838 0.477908 -4.77968e-20)
(0.957836 0.448257 8.44033e-20)
(0.892498 0.413117 1.18359e-19)
(0.839774 0.379415 2.69418e-19)
(0.799986 0.351541 0)
(0.768978 0.328487 5.53587e-21)
(0.748247 0.310386 -4.57254e-19)
(0.72547 0.295466 1.04975e-19)
(0.676214 0.270525 5.37225e-19)
(0.55605 0.220914 -1.57683e-19)
(0.34397 0.137362 3.35708e-19)
(0.103302 0.0404545 -2.79675e-20)
(0.462607 0.214932 6.23262e-21)
(1.05818 0.463944 3.28089e-19)
(1.27479 0.581073 2.10988e-19)
(1.30095 0.593171 -4.6172e-19)
(1.26118 0.595716 2.97123e-19)
(1.20693 0.582049 -9.73787e-20)
(1.14702 0.56687 -5.61181e-21)
(1.08217 0.546912 2.78567e-20)
(1.01265 0.521312 8.23049e-20)
(0.939347 0.488395 -1.10478e-19)
(0.871079 0.450315 0)
(0.819053 0.414415 -1.06865e-19)
(0.783188 0.385944 1.2269e-19)
(0.75733 0.363294 1.66337e-19)
(0.730835 0.34381 -9.53446e-20)
(0.702834 0.321783 -2.41709e-19)
(0.652171 0.294658 -7.35283e-20)
(0.537502 0.239362 -1.21049e-21)
(0.332153 0.147613 0)
(0.098168 0.0432222 0)
(0.453728 0.230344 -3.46254e-19)
(1.04433 0.50447 0)
(1.26333 0.632891 2.41252e-19)
(1.2904 0.646041 -1.10701e-19)
(1.2495 0.647354 -3.09347e-19)
(1.19473 0.631123 8.52271e-20)
(1.13372 0.613832 -1.19731e-20)
(1.0676 0.591381 -1.00007e-20)
(0.996406 0.563083 4.94176e-20)
(0.921266 0.527023 -4.68634e-20)
(0.851092 0.484624 6.63728e-20)
(0.796462 0.44497 3.33473e-19)
(0.754753 0.412254 1.34438e-20)
(0.72218 0.384879 -1.69541e-19)
(0.702463 0.361697 3.28953e-19)
(0.682413 0.346018 4.48092e-21)
(0.63775 0.315231 7.86671e-20)
(0.523121 0.257373 -3.82603e-19)
(0.319025 0.155695 3.87606e-19)
(0.0921278 0.04494 -4.63253e-19)
(0.447217 0.249665 2.72972e-23)
(1.03222 0.544007 0)
(1.25109 0.682085 0)
(1.2784 0.696233 1.03753e-19)
(1.23651 0.696166 1.20735e-19)
(1.18143 0.677532 -7.18229e-20)
(1.11953 0.658353 5.0476e-20)
(1.05229 0.633736 0)
(0.9794 0.603048 -8.26985e-20)
(0.901961 0.564366 1.6178e-19)
(0.829356 0.519677 2.04404e-19)
(0.772717 0.47752 -1.26082e-19)
(0.734092 0.441918 -1.58806e-19)
(0.709807 0.414105 3.75926e-19)
(0.68541 0.392112 -1.16332e-19)
(0.658651 0.366045 -1.41488e-19)
(0.610684 0.334475 -8.67066e-20)
(0.501019 0.269397 -4.15229e-19)
(0.304364 0.161564 5.83593e-20)
(0.0853907 0.0455802 5.03636e-19)
(0.443489 0.268556 -1.38251e-19)
(1.02032 0.58062 -2.18709e-19)
(1.2381 0.727769 2.36771e-20)
(1.26583 0.743584 7.76281e-23)
(1.22327 0.742477 4.06404e-20)
(1.16782 0.721531 -1.89765e-19)
(1.105 0.700554 0)
(1.03669 0.673948 1.03359e-20)
(0.962414 0.641246 -8.15004e-21)
(0.882936 0.600131 2.53713e-19)
(0.807529 0.551736 -5.17738e-20)
(0.749124 0.504863 5.73379e-20)
(0.708332 0.466811 0)
(0.67408 0.434603 -2.05429e-19)
(0.654546 0.406796 2.568e-19)
(0.636328 0.385788 0)
(0.593893 0.348521 -1.89973e-19)
(0.4826 0.281365 5.55467e-19)
(0.288534 0.165469 6.61244e-20)
(0.0782353 0.0451721 -6.24227e-19)
(0.441511 0.285549 -3.06557e-19)
(1.01017 0.615985 3.93312e-19)
(1.22509 0.770891 0)
(1.25268 0.7881 2.57722e-19)
(1.20948 0.786043 0)
(1.15383 0.763166 1.7892e-19)
(1.09026 0.740551 0)
(1.02105 0.712135 0)
(0.945251 0.677737 -2.97026e-20)
(0.863595 0.634621 -2.48195e-19)
(0.786174 0.583999 -3.80639e-19)
(0.726768 0.535211 7.31451e-20)
(0.683733 0.492176 2.74617e-19)
(0.659987 0.458156 2.3167e-19)
(0.636271 0.430287 -8.24121e-19)
(0.610722 0.40034 -3.41399e-19)
(0.564835 0.363997 1.98391e-19)
(0.457425 0.287967 0)
(0.271273 0.167134 5.72724e-19)
(0.0704424 0.0437715 -6.77552e-19)
(0.44002 0.301262 3.37858e-19)
(0.999759 0.648391 -4.32102e-19)
(1.21196 0.810712 0)
(1.2395 0.829758 -1.02325e-20)
(1.19586 0.827114 -1.06129e-19)
(1.14 0.80253 0)
(1.07579 0.778449 -1.61408e-20)
(1.00564 0.748388 1.82228e-20)
(0.92848 0.712418 -3.40974e-20)
(0.84487 0.667575 2.33479e-20)
(0.764285 0.614664 0)
(0.701392 0.561544 2.91279e-19)
(0.658313 0.515592 3.88082e-21)
(0.622603 0.475869 1.25921e-19)
(0.604374 0.441758 1.52011e-19)
(0.587371 0.417069 0)
(0.545869 0.370061 -3.35518e-19)
(0.437088 0.2939 6.57668e-19)
(0.253478 0.166588 -7.00091e-19)
(0.0628245 0.0413684 1.47139e-18)
(0.438751 0.316198 0)
(0.990615 0.68006 0)
(1.19921 0.848334 -2.37775e-19)
(1.2262 0.868734 0)
(1.18208 0.865471 0)
(1.12619 0.839563 2.54527e-19)
(1.06153 0.814293 -2.00625e-20)
(0.990726 0.782832 1.69391e-20)
(0.912442 0.74572 -7.95858e-22)
(0.827245 0.700048 0)
(0.744583 0.645656 -6.1488e-20)
(0.678829 0.589679 -2.4182e-19)
(0.631166 0.539837 -3.04786e-19)
(0.606118 0.497942 -1.27075e-19)
(0.583539 0.463879 1.67516e-19)
(0.559175 0.4239 -3.98083e-19)
(0.514842 0.382291 7.26468e-19)
(0.409525 0.295112 6.83996e-21)
(0.234874 0.163871 -6.77503e-19)
(0.0552606 0.0383267 -1.00544e-19)
(0.437349 0.330776 0)
(0.981247 0.709263 -3.36729e-19)
(1.18659 0.883119 2.65151e-19)
(1.21316 0.905105 0)
(1.1687 0.901409 0)
(1.1128 0.874371 -5.61969e-19)
(1.04783 0.848102 0)
(0.976515 0.815478 0)
(0.897253 0.777336 -5.2675e-20)
(0.810259 0.729982 4.77014e-20)
(0.724247 0.672667 -4.85715e-19)
(0.65451 0.615026 0)
(0.605622 0.56346 -3.31585e-19)
(0.565714 0.514167 1.15495e-20)
(0.546473 0.468977 -5.35764e-19)
(0.533045 0.435869 2.15862e-19)
(0.494451 0.378771 3.72214e-21)
(0.390116 0.293204 -7.76358e-19)
(0.217977 0.159578 3.68316e-19)
(0.0496037 0.0352617 1.07571e-19)
(0.436032 0.344887 0)
(0.973087 0.737907 -3.96409e-19)
(1.17449 0.916195 2.82232e-19)
(1.20029 0.93919 5.94702e-19)
(1.15547 0.93486 1.21497e-19)
(1.09967 0.906884 -8.49591e-20)
(1.03454 0.879873 5.32796e-20)
(0.962827 0.846355 -1.12271e-19)
(0.882525 0.80741 5.63472e-20)
(0.792897 0.759832 2.82712e-19)
(0.702651 0.704116 4.02835e-19)
(0.62903 0.645589 7.81838e-20)
(0.575278 0.586152 4.81806e-19)
(0.546831 0.534439 3.14322e-19)
(0.523399 0.488981 3.87053e-19)
(0.500653 0.435188 -2.42251e-19)
(0.460778 0.383965 -2.86868e-19)
(0.361688 0.287214 3.37723e-19)
(0.199469 0.150264 -1.99466e-19)
(0.0455111 0.034138 3.51592e-19)
(0.434628 0.358523 5.2145e-19)
(0.9647 0.764046 6.29674e-19)
(1.16261 0.946756 1.54894e-19)
(1.18786 0.971014 1.6067e-20)
(1.14279 0.966168 -4.21004e-19)
(1.08709 0.937324 1.62742e-19)
(1.02184 0.909647 -6.07529e-20)
(0.949801 0.875353 -2.13218e-20)
(0.868496 0.835882 -4.34253e-20)
(0.778053 0.787743 -3.17347e-19)
(0.68856 0.729457 2.36432e-20)
(0.611706 0.667644 0)
(0.552407 0.61116 0)
(0.502921 0.552629 -1.59497e-19)
(0.47939 0.491626 -6.37678e-19)
(0.466684 0.443061 5.25867e-19)
(0.437682 0.361932 3.2179e-19)
(0.352984 0.266375 0)
(0.203289 0.129183 6.36697e-19)
(0.040224 0.0151576 -3.80862e-19)
(0.433383 0.371394 -2.78617e-19)
(0.957336 0.78958 2.40769e-19)
(1.15128 0.975848 -3.45211e-19)
(1.17577 1.00087 -3.72896e-19)
(1.13044 0.995323 -1.65666e-19)
(1.07488 0.965676 3.92886e-20)
(1.00951 0.937443 0)
(0.93716 0.902607 1.60649e-19)
(0.855321 0.862784 9.14161e-21)
(0.762986 0.814427 0)
(0.666299 0.758264 0)
(0.582442 0.697706 5.52085e-20)
(0.519341 0.633434 8.54184e-20)
(0.481948 0.572765 -1.72199e-19)
(0.451016 0.515202 4.61248e-19)
(0.424543 0.434096 -5.79476e-19)
(0.391622 0.355437 -6.91739e-19)
(0.331525 0.242579 6.13804e-19)
(0.229894 0.14534 -2.29639e-19)
(0.123993 0.0938473 1.3159e-19)
(0.431875 0.383483 3.21153e-19)
(0.949645 0.812606 0)
(1.14018 1.00259 0)
(1.16415 1.02868 -1.25748e-19)
(1.11868 1.02262 1.01782e-19)
(1.06326 0.992225 -2.06151e-20)
(0.997855 0.963486 -2.31343e-19)
(0.925407 0.92821 -2.41612e-19)
(0.842866 0.888104 2.61508e-20)
(0.748902 0.840204 -2.59883e-20)
(0.652832 0.783173 6.36865e-20)
(0.568643 0.721222 -4.51123e-19)
(0.499853 0.662714 -5.01292e-19)
(0.435027 0.597337 -9.18306e-20)
(0.394687 0.518521 0)
(0.372216 0.446959 -1.28075e-20)
(0.349017 0.306278 3.81673e-19)
(0.307359 0.146508 -6.43018e-19)
(0.269281 -0.0150721 4.76178e-19)
(0.0818682 -0.0852017 3.79522e-19)
(0.430488 0.394917 -6.99841e-19)
(0.942769 0.835159 -3.01984e-19)
(1.12959 1.02817 6.33037e-21)
(1.15284 1.05494 1.59488e-19)
(1.1072 1.04832 0)
(1.05194 1.01732 4.80497e-19)
(0.986514 0.988249 2.88731e-19)
(0.913863 0.952676 -4.64804e-20)
(0.830792 0.912706 9.79574e-22)
(0.736012 0.864828 -2.42963e-20)
(0.635786 0.809259 2.25667e-20)
(0.544511 0.751877 3.99041e-19)
(0.463902 0.689056 4.89996e-19)
(0.413142 0.620879 8.84912e-20)
(0.364372 0.555382 4.91877e-19)
(0.306866 0.442333 0)
(0.210848 0.305466 0)
(0.0508451 0.290809 4.77049e-19)
(-0.064451 0.630483 -3.3497e-20)
(-1.29674e-05 1.4963 -6.14673e-19)
(0.428668 0.405748 3.8086e-19)
(0.935585 0.855535 9.06812e-19)
(1.11913 1.05181 -1.36578e-18)
(1.14188 1.0797 8.2482e-19)
(1.09613 1.07286 -9.7051e-20)
(1.041 1.04149 6.25258e-19)
(0.975543 1.01226 0)
(0.902793 0.976762 2.47583e-19)
(0.819326 0.937178 0)
(0.722737 0.890577 2.15336e-19)
(0.620116 0.837184 -3.65885e-20)
(0.524612 0.778851 4.10248e-20)
(0.448907 0.721692 5.42432e-19)
(0.361272 0.662196 -2.01762e-19)
(0.277333 0.575658 -2.58068e-19)
(0.209265 0.507132 0)
(0.109973 0.59335 0)
(0.0410241 1.24041 0)
(0.0799907 2.42218 -2.682e-19)
(0.111309 2.89073 -1.66527e-19)
(0.426936 0.416171 0)
(0.929165 0.875529 0)
(1.10922 1.07454 4.88628e-19)
(1.13127 1.10316 -6.87687e-19)
(1.08539 1.09606 4.73472e-19)
(1.03044 1.06449 -5.73228e-19)
(0.965044 1.03535 -3.34471e-20)
(0.892299 1.00002 2.60421e-20)
(0.808323 0.960976 3.65048e-21)
(0.711086 0.91528 -2.44328e-19)
(0.607211 0.862233 5.4727e-20)
(0.510839 0.811661 3.73478e-19)
(0.411088 0.759647 -5.34037e-19)
(0.34094 0.690643 -6.29363e-19)
(0.275188 0.640795 2.20572e-19)
(0.209941 0.757995 0)
(0.147828 1.48373 3.19122e-19)
(0.14651 2.66543 3.56824e-19)
(0.15157 3.07851 -3.99353e-19)
(0.142346 3.21814 4.40883e-19)
(0.42484 0.425728 0)
(0.922448 0.893366 7.3616e-19)
(1.09943 1.09539 -1.26669e-19)
(1.12106 1.12516 8.64696e-19)
(1.07509 1.1181 -4.96982e-19)
(1.02033 1.08653 0)
(0.954962 1.05755 0)
(0.882063 1.02263 0)
(0.797839 0.984671 -9.36009e-20)
(0.699519 0.940734 4.96535e-22)
(0.592001 0.89318 0)
(0.485199 0.842272 -3.63785e-19)
(0.40597 0.792497 0)
(0.295591 0.748629 4.47403e-19)
(0.219246 0.826538 -2.90691e-19)
(0.173799 1.43788 -2.44684e-19)
(0.182594 2.65608 -6.03059e-19)
(0.201419 3.12522 -3.0001e-19)
(0.191081 3.27268 -3.41014e-19)
(0.175802 3.31404 2.96365e-19)
(0.422933 0.434667 -2.48536e-19)
(0.916456 0.91093 1.49504e-20)
(1.09025 1.11554 -1.36441e-19)
(1.11127 1.14607 -6.92233e-19)
(1.06518 1.13896 0)
(1.01058 1.10747 0)
(0.945285 1.0789 0)
(0.872593 1.04461 -1.71225e-20)
(0.788239 1.00741 1.08382e-19)
(0.689206 0.965295 0)
(0.581451 0.917796 0)
(0.48438 0.87479 0)
(0.37066 0.838387 0)
(0.309779 0.832622 2.91936e-19)
(0.287578 1.1812 7.65741e-19)
(0.280171 2.32446 2.39805e-19)
(0.290818 3.07943 4.33617e-19)
(0.282381 3.29275 -2.72943e-19)
(0.231258 3.36181 1.00582e-19)
(0.196701 3.37456 0)
(0.420681 0.443078 2.51828e-19)
(0.909926 0.926826 -1.58711e-18)
(1.0809 1.13442 -4.50092e-19)
(1.1016 1.16616 -1.10048e-19)
(1.05544 1.15927 1.26863e-19)
(1.00108 1.12801 -8.97203e-19)
(0.935894 1.09981 6.10194e-20)
(0.863144 1.06608 4.29892e-19)
(0.778596 1.03041 0)
(0.679242 0.990657 -1.37834e-20)
(0.57055 0.948889 1.25385e-20)
(0.457006 0.908194 0)
(0.377712 0.877285 0)
(0.329511 1.00188 -3.61895e-19)
(0.302389 1.82326 -3.61002e-21)
(0.29702 2.92363 -1.24928e-19)
(0.314917 3.29686 2.00708e-19)
(0.288234 3.40121 6.49853e-20)
(0.219559 3.42773 9.91114e-20)
(0.193079 3.4363 -5.15979e-20)
(0.418354 0.451496 4.85094e-19)
(0.903539 0.944123 1.51775e-18)
(1.0714 1.15446 5.53565e-19)
(1.09157 1.18688 0)
(1.04538 1.17994 0)
(0.991243 1.14876 6.87337e-19)
(0.926189 1.121 -4.27568e-19)
(0.853827 1.0881 -3.94968e-19)
(0.76977 1.05346 -1.59581e-20)
(0.670642 1.01557 7.78591e-21)
(0.560425 0.976406 -2.43351e-19)
(0.458782 0.940552 0)
(0.381865 0.957516 0)
(0.352128 1.33815 -1.97706e-19)
(0.362997 2.42748 -2.59746e-19)
(0.40635 3.19807 0)
(0.433706 3.38651 7.41192e-20)
(0.363102 3.45315 2.1442e-19)
(0.286745 3.49822 -4.66908e-19)
(0.261158 3.52426 2.72514e-19)
(0.415109 0.460257 -9.19017e-19)
(0.8957 0.960881 -7.21987e-19)
(1.06066 1.17457 0)
(1.08068 1.2082 0)
(1.03457 1.20144 0)
(0.980834 1.17034 0)
(0.916179 1.14283 4.56873e-19)
(0.844222 1.1103 -5.062e-19)
(0.760304 1.07682 0)
(0.660818 1.04195 -1.14029e-21)
(0.553288 1.00644 3.94349e-19)
(0.445371 0.980065 2.1364e-20)
(0.391601 1.06224 3.78849e-20)
(0.409501 1.70858 2.87907e-19)
(0.437646 2.87015 -7.7945e-20)
(0.473065 3.33123 0)
(0.453867 3.46506 -7.25046e-20)
(0.362471 3.55422 1.02013e-19)
(0.275777 3.62591 3.51361e-19)
(0.198932 3.60676 -3.08191e-19)
(0.411789 0.469255 4.35571e-19)
(0.887795 0.980087 -7.09337e-19)
(1.04942 1.19678 0)
(1.06902 1.23079 -1.76874e-19)
(1.02302 1.22373 6.72158e-19)
(0.969691 1.19244 0)
(0.905386 1.16509 0)
(0.833988 1.1332 9.45773e-19)
(0.751037 1.10117 1.69855e-20)
(0.653901 1.06785 -1.11798e-19)
(0.544059 1.03729 -1.62344e-19)
(0.457162 1.02987 1.34077e-19)
(0.42721 1.23023 0)
(0.456626 2.12056 -1.33007e-19)
(0.503436 3.13261 1.15025e-19)
(0.563233 3.43999 -4.4391e-20)
(0.558335 3.54618 0)
(0.486624 3.64578 -1.99122e-19)