/*--------------------------------*- C++ -*----------------------------------*\
| =========                 |                                                 |
| \\      /  F ield         | OpenFOAM: The Open Source CFD Toolbox           |
|  \\    /   O peration     | Version:  4.0                                   |
|   \\  /    A nd           | Web:      www.OpenFOAM.org                      |
|    \\/     M anipulation  |                                                 |
\*---------------------------------------------------------------------------*/
FoamFile
{
    version     2.0;
    format      ascii;
    class       volScalarField;
    location    "3";
    object      T;
}
// * * * * * * * * * * * * * * * * * * * * * * * * * * * * * * * * * * * * * //

dimensions      [0 0 0 1 0 0 0];

internalField   nonuniform List<scalar> 
1000
(
0
0
0
0
0
0
0
0
0
0
0
0
0
0
0
0
0
0
0
0
0
0
0
0
0
0
0
0
0
0
0
0
0
0
0
0
0
0
0
0
0
0
0
0
0
0
0
0
0
0
0
0
0
0
0
0
0
0
0
0
0
0
0
0
0
0
0
0
0
0
0
0
0
0
0
0
0
0
0
0
0
0
0
0
0
0
0
0
0
0
0
0
0
0
0
0
0
0
0
0
0
0
0
0
0
0
0
0
0
0
0
0
0
0
0
0
0
0
0
0
0
0
0
0
0
0
0
0
0
0
0
0
0
0
0
0
0
0
0
0
0
0
0
0
0
0
0
0
0
0
0
0
0
0
0
0
0
0
0
0
0
0
0
0
0
0
0
0
0
0
0
0
0
0
0
0
0
0
0
0
0
0
0
0
0
0
0
0
0
0
0
0
0
0
0
0
0
0
0
0
0
0
0
0
0
0
0
0
0
0
0
0
1.23516e-322
5.92879e-321
2.67714e-319
1.20476e-317
5.4085e-316
2.42223e-314
1.08221e-312
4.82344e-311
2.14459e-309
9.51198e-308
4.20849e-306
1.8574e-304
8.17715e-303
3.59094e-301
1.57296e-299
6.87261e-298
2.99513e-296
1.30194e-294
5.6447e-293
2.44095e-291
1.05278e-289
4.52862e-288
1.94286e-286
8.31293e-285
3.54729e-283
1.5096e-281
6.40678e-280
2.7116e-278
1.14448e-276
4.81706e-275
2.0218e-273
8.46191e-272
3.53154e-270
1.46966e-268
6.09842e-267
2.52324e-265
1.04095e-263
4.2818e-262
1.75604e-260
7.1804e-259
2.92724e-257
1.18974e-255
4.82087e-254
1.94745e-252
7.84267e-251
3.14855e-249
1.26007e-247
5.02702e-246
1.99914e-244
7.92476e-243
3.13132e-241
1.23326e-239
4.84132e-238
1.89426e-236
7.38703e-235
2.87109e-233
1.11214e-231
4.29335e-230
1.65175e-228
6.3328e-227
2.41956e-225
9.21201e-224
3.49494e-222
1.32123e-220
4.97692e-219
1.86799e-217
6.9856e-216
2.60279e-214
9.66202e-213
3.57335e-211
1.31659e-209
4.83259e-208
1.76705e-206
6.43642e-205
2.33536e-203
8.44036e-202
3.03846e-200
1.08948e-198
3.89079e-197
1.38388e-195
4.90217e-194
1.72937e-192
6.07555e-191
2.12551e-189
7.40469e-188
2.56862e-186
8.87208e-185
3.05118e-183
1.04475e-181
3.56154e-180
1.20873e-178
4.08387e-177
1.37355e-175
4.59866e-174
1.53255e-172
5.08362e-171
1.67838e-169
5.51503e-168
1.80354e-166
5.86952e-165
1.90091e-163
6.12606e-162
1.96445e-160
6.26787e-159
1.98975e-157
6.28424e-156
1.97452e-154
6.17171e-153
1.91893e-151
5.93472e-150
1.8256e-148
5.58538e-147
1.69948e-145
5.14248e-144
1.54738e-142
4.6298e-141
1.37735e-139
4.07397e-138
1.19799e-136
3.5021e-135
1.01768e-133
2.93952e-132
8.43904e-131
2.40788e-129
6.82762e-128
1.92384e-126
5.38642e-125
1.49842e-123
4.14132e-122
1.13705e-120
3.10119e-119
8.40128e-118
2.26047e-116
6.04024e-115
1.60279e-113
4.22304e-112
1.10476e-110
2.86921e-109
7.39731e-108
1.89304e-106
4.8082e-105
1.21199e-103
3.03155e-102
7.52387e-101
1.8526e-99
4.52525e-98
1.09642e-96
2.63474e-95
6.27881e-94
1.4837e-92
3.47613e-91
8.07369e-90
1.85876e-88
4.24128e-87
9.59037e-86
2.14874e-84
4.76961e-83
1.04876e-81
2.284e-80
4.92592e-79
1.05192e-77
2.2239e-76
4.65394e-75
9.63889e-74
1.97544e-72
4.00551e-71
8.03405e-70
1.59373e-68
3.12623e-67
6.06277e-66
1.1622e-64
2.20172e-63
4.12122e-62
7.62047e-61
1.39166e-59
2.50948e-58
4.46716e-57
7.84824e-56
1.3605e-54
2.32648e-53
3.92336e-52
6.52316e-51
1.06899e-49
1.72616e-48
2.74566e-47
4.30062e-46
6.63125e-45
1.00621e-43
1.50198e-42
2.20473e-41
3.18127e-40
4.51053e-39
6.2814e-38
8.58816e-37
1.15229e-35
1.5165e-34
1.9567e-33
2.47392e-32
3.06334e-31
3.71285e-30
4.40215e-29
5.10269e-28
5.77866e-27
6.38925e-26
6.89214e-25
7.24782e-24
7.42436e-23
7.40181e-22
7.17548e-21
6.75741e-20
6.17564e-19
5.4712e-18
4.69329e-17
3.89338e-16
3.11925e-15
2.41007e-14
1.79305e-13
1.28239e-12
8.80101e-12
5.78472e-11
3.63371e-10
2.17638e-09
1.23976e-08
6.69824e-08
3.42197e-07
1.64751e-06
7.44738e-06
3.14784e-05
0.000123844
0.000451214
0.00151392
0.00464886
0.0129778
0.032702
0.0738468
0.148453
0.264375
0.416555
0.583445
0.735625
0.851547
0.926153
0.967298
0.987022
0.995351
0.998486
0.999549
0.999876
0.999969
0.999993
0.999998
1
1
1
1
1
1
1
1
1
1
1
1
1
1
1
1
1
1
1
1
1
1
1
1
1
1
1
1
1
1
1
1
1
1
1
1
1
1
1
1
1
1
1
1
1
1
1
1
1
1
1
1
1
1
1
1
1
1
1
1
1
1
1
1
1
1
1
1
1
1
1
1
1
1
0.999998
0.999993
0.999969
0.999876
0.999549
0.998486
0.995351
0.987022
0.967298
0.926153
0.851547
0.735625
0.583445
0.416555
0.264375
0.148453
0.0738468
0.032702
0.0129778
0.00464886
0.00151392
0.000451214
0.000123844
3.14784e-05
7.44738e-06
1.64751e-06
3.42197e-07
6.69824e-08
1.23976e-08
2.17638e-09
3.63371e-10
5.78472e-11
8.80101e-12
1.28239e-12
1.79305e-13
2.41007e-14
3.11925e-15
3.89338e-16
4.69329e-17
5.4712e-18
6.17564e-19
6.75741e-20
7.17548e-21
7.40181e-22
7.42436e-23
7.24782e-24
6.89214e-25
6.38925e-26
5.77866e-27
5.10269e-28
4.40215e-29
3.71285e-30
3.06334e-31
2.47392e-32
1.9567e-33
1.5165e-34
1.15229e-35
8.58816e-37
6.2814e-38
4.51053e-39
3.18127e-40
2.20473e-41
1.50198e-42
1.00621e-43
6.63125e-45
4.30062e-46
2.74566e-47
1.72616e-48
1.06899e-49
6.52316e-51
3.92336e-52
2.32648e-53
1.3605e-54
7.84824e-56
4.46716e-57
2.50948e-58
1.39166e-59
7.62047e-61
4.12122e-62
2.20172e-63
1.1622e-64
6.06277e-66
3.12623e-67
1.59373e-68
8.03405e-70
4.00551e-71
1.97544e-72
9.63889e-74
4.65394e-75
2.2239e-76
1.05192e-77
4.92592e-79
2.284e-80
1.04876e-81
4.76961e-83
2.14874e-84
9.59037e-86
4.24128e-87
1.85876e-88
8.07369e-90
3.47613e-91
1.4837e-92
6.27881e-94
2.63474e-95
1.09642e-96
4.52525e-98
1.8526e-99
7.52387e-101
3.03155e-102
1.21199e-103
4.8082e-105
1.89304e-106
7.39731e-108
2.86921e-109
1.10476e-110
4.22304e-112
1.60279e-113
6.04024e-115
2.26047e-116
8.40128e-118
3.10119e-119
1.13705e-120
4.14132e-122
1.49842e-123
5.38642e-125
1.92384e-126
6.82762e-128
2.40788e-129
8.43904e-131
2.93952e-132
1.01768e-133
3.5021e-135
1.19799e-136
4.07397e-138
1.37735e-139
4.6298e-141
1.54738e-142
5.14248e-144
1.69948e-145
5.58538e-147
1.8256e-148
5.93472e-150
1.91893e-151
6.17171e-153
1.97452e-154
6.28424e-156
1.98975e-157
6.26787e-159
1.96445e-160
6.12606e-162
1.90091e-163
5.86952e-165
1.80354e-166
5.51503e-168
1.67838e-169
5.08362e-171
1.53255e-172
4.59866e-174
1.37355e-175
4.08387e-177
1.20873e-178
3.56154e-180
1.04475e-181
3.05118e-183
8.87208e-185
2.56862e-186
7.40469e-188
2.12551e-189
6.07555e-191
1.72937e-192
4.90217e-194
1.38388e-195
3.89079e-197
1.08948e-198
3.03846e-200
8.44036e-202
2.33536e-203
6.43642e-205
1.76705e-206
4.83259e-208
1.31659e-209
3.57335e-211
9.66202e-213
2.60279e-214
6.9856e-216
1.86799e-217
4.97692e-219
1.32123e-220
3.49494e-222
9.21201e-224
2.41956e-225
6.3328e-227
1.65175e-228
4.29335e-230
1.11214e-231
2.87109e-233
7.38703e-235
1.89426e-236
4.84132e-238
1.23326e-239
3.13132e-241
7.92476e-243
1.99914e-244
5.02702e-246
1.26007e-247
3.14855e-249
7.84267e-251
1.94745e-252
4.82087e-254
1.18974e-255
2.92724e-257
7.1804e-259
1.75604e-260
4.2818e-262
1.04095e-263
2.52324e-265
6.09842e-267
1.46966e-268
3.53154e-270
8.46191e-272
2.0218e-273
4.81706e-275
1.14448e-276
2.7116e-278
6.40678e-280
1.5096e-281
3.54729e-283
8.31293e-285
1.94286e-286
4.52862e-288
1.05278e-289
2.44095e-291
5.6447e-293
1.30194e-294
2.99513e-296
6.87261e-298
1.57296e-299
3.59094e-301
8.17715e-303
1.8574e-304
4.20849e-306
9.51198e-308
2.14459e-309
4.82344e-311
1.08221e-312
2.42223e-314
5.4085e-316
1.20476e-317
2.67714e-319
5.92385e-321
1.23516e-322
0
0
0
0
0
0
0
0
0
0
0
0
0
0
0
0
0
0
0
0
0
0
0
0
0
0
0
0
0
0
0
0
0
0
0
0
0
0
0
0
0
0
0
0
0
0
0
0
0
0
0
0
0
0
0
0
0
0
0
0
0
0
0
0
0
0
0
0
0
0
0
0
0
0
0
0
0
0
0
0
0
0
0
0
0
0
0
0
0
0
0
0
0
0
0
0
0
0
0
0
0
0
0
0
0
0
0
0
0
0
0
0
0
0
0
0
0
0
0
0
0
0
0
0
0
0
0
0
0
0
0
0
0
0
0
0
0
0
0
0
0
0
0
0
0
0
0
0
0
0
0
0
0
0
0
0
0
0
0
0
0
0
0
0
0
0
0
0
0
0
0
0
0
0
0
0
0
0
0
0
0
0
0
0
0
0
0
0
0
0
0
0
0
0
0
0
0
0
0
0
0
0
0
0
0
0
0
0
0
0
0
0
)
;

boundaryField
{
    sides
    {
        type            zeroGradient;
    }
    empty
    {
        type            empty;
    }
}


// ************************************************************************* //
