/*--------------------------------*- C++ -*----------------------------------*\
| =========                 |                                                 |
| \\      /  F ield         | OpenFOAM: The Open Source CFD Toolbox           |
|  \\    /   O peration     | Version:  4.0                                   |
|   \\  /    A nd           | Web:      www.OpenFOAM.org                      |
|    \\/     M anipulation  |                                                 |
\*---------------------------------------------------------------------------*/
FoamFile
{
    version     2.0;
    format      ascii;
    class       volScalarField;
    location    "36";
    object      p;
}
// * * * * * * * * * * * * * * * * * * * * * * * * * * * * * * * * * * * * * //

dimensions      [0 2 -2 0 0 0 0];

internalField   nonuniform List<scalar> 
8800
(
0.9419
0.894111
0.855416
0.826414
0.80554
0.790692
0.780072
0.772561
0.7677
0.765586
0.76678
0.770912
0.777508
0.786786
0.799539
0.817255
0.842019
0.875951
0.918494
0.977195
0.773161
0.780839
0.788302
0.791606
0.790095
0.785005
0.778501
0.7724
0.767638
0.764741
0.764394
0.766827
0.771256
0.777157
0.783893
0.790148
0.793772
0.793026
0.787593
0.778896
0.751583
0.757742
0.761864
0.764799
0.766835
0.767422
0.766292
0.764154
0.762089
0.761112
0.761997
0.764309
0.767051
0.769188
0.769761
0.768536
0.766174
0.762766
0.758201
0.754439
0.745812
0.74846
0.751206
0.753599
0.75522
0.756361
0.757074
0.757152
0.756801
0.756677
0.757341
0.758432
0.759206
0.759218
0.758567
0.757443
0.755602
0.753012
0.750598
0.749093
0.740483
0.741906
0.743679
0.7457
0.747469
0.748788
0.749746
0.750498
0.751049
0.751527
0.752076
0.752476
0.752496
0.752143
0.751393
0.750101
0.748371
0.746497
0.745176
0.744345
0.735475
0.736394
0.737629
0.739186
0.740802
0.742303
0.743553
0.744569
0.745459
0.74625
0.746817
0.747029
0.746887
0.746365
0.745416
0.744159
0.742785
0.74149
0.740651
0.740102
0.730655
0.731323
0.732281
0.733574
0.734968
0.736402
0.737805
0.739072
0.740186
0.741172
0.741845
0.742068
0.741856
0.741237
0.740339
0.739315
0.73824
0.73727
0.736666
0.736264
0.725982
0.726497
0.727277
0.7284
0.729664
0.731014
0.732421
0.733833
0.735165
0.736356
0.737181
0.737469
0.737278
0.736749
0.736026
0.7352
0.734341
0.733599
0.733145
0.732832
0.721392
0.7218
0.722455
0.723457
0.72465
0.725952
0.727354
0.72884
0.730352
0.731778
0.7328
0.733225
0.733178
0.732826
0.732288
0.731641
0.73096
0.730393
0.730046
0.729795
0.716806
0.717137
0.717703
0.718631
0.719777
0.721062
0.722489
0.724052
0.725717
0.727389
0.728673
0.72934
0.729523
0.729377
0.729025
0.72856
0.728037
0.727612
0.727347
0.72714
0.712153
0.712425
0.712931
0.713816
0.714948
0.716256
0.717746
0.719426
0.721283
0.723237
0.724857
0.725838
0.726291
0.726374
0.726218
0.725927
0.725555
0.725249
0.725049
0.724875
0.707358
0.707582
0.708049
0.708924
0.710082
0.711457
0.713057
0.714914
0.71703
0.719336
0.721373
0.722732
0.723489
0.723824
0.723876
0.723753
0.723526
0.723321
0.723175
0.723026
0.70235
0.702535
0.702981
0.703874
0.7051
0.706583
0.708343
0.71044
0.7129
0.715669
0.718208
0.720002
0.721113
0.721735
0.722019
0.72207
0.721986
0.721875
0.721775
0.721646
0.69706
0.697211
0.697653
0.698588
0.699916
0.701549
0.703516
0.705913
0.708791
0.71213
0.715293
0.71763
0.719181
0.720149
0.720704
0.720956
0.721009
0.720988
0.720931
0.720819
0.691399
0.691521
0.691967
0.692966
0.694429
0.696263
0.698516
0.701299
0.704695
0.708728
0.71266
0.715671
0.717757
0.719123
0.719975
0.720473
0.720695
0.72077
0.720752
0.720651
0.685254
0.685339
0.685805
0.686899
0.688552
0.690652
0.693274
0.696572
0.700664
0.705582
0.710452
0.714249
0.716935
0.718773
0.719986
0.720733
0.721144
0.721322
0.721346
0.721255
0.678496
0.678568
0.679048
0.680243
0.682112
0.684529
0.687599
0.691505
0.696422
0.702422
0.708441
0.713222
0.716701
0.719146
0.720806
0.721888
0.722527
0.722823
0.722889
0.722804
0.670867
0.670924
0.671461
0.672775
0.674916
0.677743
0.681392
0.686095
0.692066
0.699401
0.706838
0.712804
0.717179
0.720328
0.722576
0.724083
0.725008
0.725446
0.725554
0.72547
0.66212
0.662153
0.662752
0.664248
0.666735
0.670091
0.674481
0.6802
0.687514
0.696529
0.705664
0.713032
0.718507
0.722514
0.725445
0.727453
0.728726
0.729335
0.729485
0.729397
0.651794
0.651816
0.6525
0.654234
0.657166
0.661201
0.666539
0.67354
0.68251
0.693568
0.7048
0.713884
0.720683
0.725711
0.729466
0.732099
0.733797
0.734596
0.734783
0.734679
0.639243
0.639266
0.640089
0.642179
0.645753
0.650741
0.657376
0.666093
0.677223
0.690839
0.704548
0.7156
0.723909
0.730117
0.734776
0.738114
0.74027
0.741263
0.741483
0.741358
0.623613
0.623642
0.624687
0.627331
0.631836
0.638149
0.646543
0.657511
0.671368
0.688107
0.704777
0.71815
0.728198
0.735752
0.741451
0.74558
0.748222
0.749407
0.749655
0.749504
0.603738
0.603782
0.605184
0.608706
0.614624
0.622871
0.633745
0.647752
0.665104
0.685636
0.705753
0.721738
0.733735
0.74277
0.749646
0.75462
0.757756
0.759126
0.759396
0.759217
0.57787
0.57795
0.579973
0.584945
0.593131
0.604259
0.618673
0.63673
0.658471
0.683529
0.70758
0.726483
0.740635
0.751332
0.759446
0.765367
0.769014
0.770551
0.770827
0.770616
0.543081
0.543291
0.546583
0.554201
0.566173
0.581764
0.601207
0.624601
0.651741
0.682053
0.710479
0.732536
0.748995
0.761477
0.770987
0.777908
0.782057
0.783711
0.783966
0.783719
0.493661
0.494747
0.501357
0.514376
0.532871
0.555303
0.58167
0.611817
0.645343
0.681545
0.714668
0.740019
0.758874
0.773211
0.784234
0.792194
0.79678
0.798484
0.798679
0.798386
0.420498
0.427989
0.443303
0.466433
0.494609
0.526145
0.560994
0.598957
0.639639
0.682338
0.720634
0.749678
0.771273
0.78782
0.800656
0.809816
0.814995
0.816881
0.817102
0.816861
0.341767
0.359127
0.38387
0.417628
0.45591
0.496768
0.54022
0.586258
0.634589
0.684624
0.729239
0.763126
0.788463
0.808032
0.823321
0.83419
0.840115
0.842167
0.842451
0.842384
0.276519
0.296781
0.329349
0.37195
0.419114
0.468742
0.520518
0.574436
0.630228
0.687329
0.737922
0.776325
0.805117
0.827344
0.844465
0.856365
0.862843
0.865475
0.865793
0.865799
0.223166
0.245147
0.283041
0.331935
0.386115
0.44306
0.502165
0.563296
0.626051
0.689823
0.746002
0.788481
0.820195
0.844448
0.862884
0.875893
0.883539
0.886064
0.886482
0.886547
0.178909
0.201913
0.243402
0.297258
0.35708
0.420054
0.485427
0.552935
0.622027
0.691944
0.753251
0.799345
0.83351
0.859425
0.879073
0.892932
0.901126
0.904026
0.904633
0.904736
0.141298
0.164891
0.209103
0.266791
0.331235
0.399322
0.470141
0.5433
0.618116
0.693667
0.759638
0.808934
0.845197
0.872471
0.893021
0.907541
0.916186
0.919539
0.920294
0.920409
0.108374
0.132356
0.178653
0.239448
0.307738
0.380232
0.45586
0.534106
0.61416
0.694906
0.765168
0.817319
0.855355
0.883707
0.904919
0.919894
0.928847
0.932523
0.933415
0.933531
0.0786306
0.102987
0.150916
0.214316
0.285904
0.362223
0.442144
0.525024
0.609918
0.695534
0.769818
0.824615
0.864231
0.893501
0.91521
0.930523
0.939659
0.943564
0.944495
0.944589
0.0511075
0.0758197
0.125152
0.190756
0.265185
0.344874
0.428649
0.515767
0.605184
0.695426
0.773587
0.830935
0.872062
0.902188
0.924346
0.93988
0.949158
0.953142
0.954099
0.954143
0.0250009
0.0501241
0.100877
0.168286
0.245208
0.327877
0.415126
0.506139
0.599795
0.69448
0.776465
0.836378
0.879049
0.910037
0.93265
0.948374
0.957679
0.961676
0.962707
0.962748
-3.27739e-05
0.0255318
0.0772897
0.146589
0.225694
0.311027
0.401414
0.496006
0.593642
0.692626
0.778447
0.841033
0.885363
0.917307
0.940416
0.95634
0.965675
0.969611
0.970596
0.970618
-0.0243957
0.00174011
0.0544913
0.125406
0.206463
0.294184
0.387413
0.485287
0.586651
0.689799
0.779518
0.844954
0.891125
0.924167
0.947863
0.964029
0.973389
0.977267
0.978123
0.978082
-0.0482018
-0.021581
0.0322753
0.104614
0.187425
0.27728
0.373069
0.473945
0.578785
0.68596
0.779651
0.848165
0.896414
0.930726
0.955116
0.971554
0.980892
0.984639
0.985384
0.98526
-0.0715474
-0.0443542
0.010493
0.0841464
0.168541
0.2603
0.358379
0.461973
0.570033
0.681071
0.778785
0.850627
0.901247
0.937052
0.962233
0.978939
0.988178
0.99171
0.992302
0.992116
-0.0945126
-0.0666898
-0.0109051
0.0639867
0.149799
0.243259
0.343377
0.449409
0.560411
0.675101
0.776841
0.85226
0.905611
0.943198
0.969288
0.986217
0.995245
0.998461
0.998892
0.998659
-0.117088
-0.0885771
-0.0318675
0.0441547
0.131243
0.226198
0.328118
0.436306
0.549954
0.668031
0.773742
0.85296
0.909445
0.949208
0.976391
0.993442
1.00205
1.00483
1.00508
1.00481
-0.139103
-0.109944
-0.0523498
0.0246931
0.112917
0.209188
0.312671
0.422748
0.538731
0.659896
0.769426
0.8526
0.912612
0.955086
0.983721
1.0008
1.00863
1.01073
1.01077
1.01049
-0.16052
-0.130747
-0.0723231
0.00565936
0.0948862
0.192297
0.297131
0.40882
0.526831
0.650734
0.763849
0.85102
0.914923
0.960745
0.991504
1.00875
1.01527
1.01618
1.01589
1.01565
-0.181397
-0.15094
-0.0917449
-0.0129059
0.0772163
0.175611
0.281591
0.394632
0.514356
0.640625
0.756975
0.848077
0.916113
0.965917
0.999836
1.01807
1.02297
1.02166
1.02048
1.02047
-0.201552
-0.170492
-0.11055
-0.0309327
0.0599695
0.159211
0.266147
0.3803
0.50143
0.629674
0.748818
0.843632
0.915875
0.970088
1.00836
1.02943
1.0339
1.02964
1.02587
1.02505
-0.221074
-0.189388
-0.128752
-0.0484452
0.043114
0.143052
0.250741
0.365762
0.487983
0.617809
0.739247
0.837421
0.913869
0.97254
1.01601
1.04245
1.05002
1.04568
1.0356
1.01936
-0.239883
-0.207615
-0.146467
-0.065635
0.0263577
0.126797
0.234953
0.350528
0.473463
0.604372
0.727583
0.828594
0.909421
0.972183
1.02031
1.05351
1.0652
1.05494
1.03664
1.02095
-0.257799
-0.225297
-0.163507
-0.0822666
0.0100065
0.110795
0.21901
0.334929
0.458193
0.589652
0.713966
0.81679
0.90196
0.967947
1.01626
1.04925
1.06453
1.04479
0.975165
0.942844
-0.274157
-0.243616
-0.179543
-0.0977497
-0.00521537
0.095544
0.203212
0.319195
0.442396
0.573787
0.698382
0.801804
0.890354
0.959626
0.999703
1.02483
1.02413
0.973583
0.903209
0.859474
-0.330439
-0.259736
-0.194293
-0.113156
-0.0207861
0.079625
0.1875
0.303054
0.425718
0.556354
0.68029
0.783224
0.87115
0.947509
0.952885
0.964946
0.926765
0.861334
0.785112
0.742323
-0.291671
-0.275608
-0.215906
-0.134935
-0.0434452
0.0567118
0.163576
0.278309
0.39972
0.528488
0.64975
0.750197
0.829487
0.906888
0.901682
0.796559
0.694596
0.623574
0.550807
0.584653
-0.323086
-0.293619
-0.232962
-0.152641
-0.0610762
0.0387536
0.1458
0.25982
0.380041
0.506795
0.62491
0.721158
0.792689
0.833034
0.78854
0.645753
0.519829
0.429806
0.330846
0.384097
-0.347304
-0.31488
-0.25293
-0.172318
-0.0806681
0.0190194
0.125921
0.239029
0.357738
0.481931
0.59613
0.686633
0.748479
0.757187
0.654986
0.483428
0.330489
0.21119
0.0799776
0.114616
-0.371017
-0.337012
-0.273838
-0.192355
-0.100519
-0.000962514
0.105399
0.217475
0.334489
0.455789
0.565282
0.649337
0.695946
0.673489
0.518626
0.322044
0.129858
-0.043011
-0.236449
-0.25
-0.394073
-0.359637
-0.295548
-0.213301
-0.121235
-0.0218595
0.0838528
0.194794
0.309881
0.427947
0.532186
0.608943
0.638094
0.580973
0.389153
0.177213
-0.0435438
-0.239077
-0.488965
-0.802282
-0.417407
-0.382968
-0.318334
-0.235561
-0.14325
-0.043996
0.0611459
0.170938
0.284016
0.398641
0.497448
0.565804
0.577093
0.469497
0.276964
0.0654723
-0.142317
-0.318906
-0.386347
-0.475253
-0.441935
-0.407455
-0.342527
-0.259476
-0.16705
-0.0679997
0.0364865
0.144969
0.255739
0.366427
0.459396
0.517663
0.504304
0.362699
0.177955
-0.013854
-0.178179
-0.271963
-0.296094
-0.31284
-0.467978
-0.433419
-0.368292
-0.285125
-0.192757
-0.094066
0.00953829
0.116423
0.224482
0.330602
0.417226
0.462667
0.430689
0.263395
0.0883915
-0.0771585
-0.204827
-0.24336
-0.257946
-0.259349
-0.49574
-0.461018
-0.395684
-0.312488
-0.220306
-0.122182
-0.0196933
0.0852747
0.190202
0.291174
0.370628
0.402679
0.353332
0.170443
0.00506321
-0.14257
-0.220926
-0.237633
-0.239515
-0.239578
-0.525263
-0.490258
-0.424715
-0.341544
-0.249691
-0.152311
-0.0511829
0.0515431
0.152927
0.248231
0.3195
0.340211
0.255857
0.0843888
-0.0726759
-0.193762
-0.228071
-0.230222
-0.230782
-0.230329
-0.556251
-0.521059
-0.455261
-0.372188
-0.280799
-0.184369
-0.0848616
0.0152993
0.112725
0.201882
0.264524
0.268309
0.161179
0.00360458
-0.136061
-0.214137
-0.223507
-0.225906
-0.226656
-0.22653
-0.588122
-0.552819
-0.487064
-0.404181
-0.313417
-0.218159
-0.12053
-0.0232658
0.0698337
0.15243
0.206485
0.19228
0.0732137
-0.068336
-0.18557
-0.211431
-0.223398
-0.225466
-0.224849
-0.224557
-0.620434
-0.585044
-0.519644
-0.437113
-0.347166
-0.253318
-0.157851
-0.0637914
0.0246442
0.100564
0.144908
0.11728
-0.0148615
-0.135698
-0.219608
-0.250639
-0.234094
-0.227171
-0.225588
-0.224977
-0.652335
-0.617151
-0.552133
-0.470332
-0.381475
-0.28932
-0.196303
-0.105704
-0.0222443
0.0471554
0.0809776
0.0458736
-0.102304
-0.20494
-0.235996
-0.234644
-0.239184
-0.238993
-0.236367
-0.234769
-0.682248
-0.647966
-0.583657
-0.50293
-0.415542
-0.325404
-0.235142
-0.148197
-0.0698699
-0.00689529
0.0198314
-0.0304433
-0.184649
-0.30703
-0.302261
-0.300815
-0.273957
-0.254787
-0.248114
-0.246155
-0.708738
-0.675326
-0.613138
-0.533786
-0.448314
-0.360567
-0.273387
-0.190261
-0.116826
-0.0604726
-0.0354626
-0.106323
-0.259445
-0.428286
-0.444667
-0.376191
-0.318143
-0.287204
-0.276033
-0.272227
-0.729801
-0.698211
-0.638393
-0.561497
-0.478492
-0.393606
-0.309812
-0.230668
-0.161615
-0.11164
-0.0858962
-0.16051
-0.292577
-0.483612
-0.570009
-0.456741
-0.413541
-0.39376
-0.376851
-0.366645
-0.743449
-0.714478
-0.65793
-0.584264
-0.504543
-0.423108
-0.343017
-0.267937
-0.202867
-0.157742
-0.130118
-0.181425
-0.22439
-0.298643
-0.399706
-0.463813
-0.5275
-0.53853
-0.522528
-0.516613
-0.747225
-0.722158
-0.669941
-0.600417
-0.524774
-0.447505
-0.371479
-0.300423
-0.239345
-0.19652
-0.16292
-0.19144
-0.116984
-0.0268836
-0.17883
-0.391177
-0.514589
-0.542871
-0.554339
-0.558633
-0.739477
-0.719016
-0.672446
-0.608424
-0.537746
-0.465213
-0.393548
-0.326446
-0.269482
-0.228737
-0.198133
-0.267357
-0.250025
0.023566
-0.057228
-0.409633
-0.632679
-0.652079
-0.659499
-0.660719
-0.718257
-0.702308
-0.663908
-0.607185
-0.542464
-0.475034
-0.407684
-0.34406
-0.290612
-0.255405
-0.252903
-0.42432
-0.704888
-0.876642
-1.0623
-1.21739
-1.15171
-0.965104
-0.842701
-0.852437
-0.685298
-0.674592
-0.644774
-0.596888
-0.538773
-0.476447
-0.412807
-0.351415
-0.298279
-0.265462
-0.278677
-0.551881
-1.27195
-2.37203
-2.95574
-3.13107
-2.84964
-2.35489
-1.94695
-1.76026
-0.645704
-0.639504
-0.618989
-0.579746
-0.528184
-0.469975
-0.408586
-0.347033
-0.290364
-0.250164
-0.266515
-0.485207
-1.02096
-1.60859
-2.02756
-2.13194
-1.96423
-1.68266
-1.41915
-1.28717
-0.606895
-0.603423
-0.591702
-0.560504
-0.513559
-0.457861
-0.396371
-0.331007
-0.266363
-0.205946
-0.169359
-0.168907
-0.134141
0.0643333
0.347323
0.664443
0.933187
1.1216
1.24307
1.29447
-0.575418
-0.573343
-0.567375
-0.543667
-0.500128
-0.443645
-0.3795
-0.307252
-0.228435
-0.141317
-0.0411285
0.0943316
0.43187
0.98861
1.60417
2.15428
2.55017
2.77224
2.86147
2.88571
-0.548197
-0.547519
-0.546001
-0.530538
-0.490087
-0.4315
-0.362398
-0.283716
-0.193441
-0.0916324
0.0258551
0.146101
0.444932
0.984124
1.5549
2.05515
2.41319
2.62188
2.71884
2.74694
-0.527068
-0.526816
-0.526807
-0.517889
-0.481904
-0.421592
-0.34761
-0.263992
-0.170547
-0.0648755
0.0413612
0.15599
0.336155
0.797068
1.26968
1.67243
1.97715
2.15614
2.23638
2.25837
-0.508188
-0.507217
-0.507012
-0.503687
-0.473227
-0.411569
-0.334112
-0.248255
-0.156092
-0.0540007
0.0466768
0.149446
0.277778
0.591132
0.966403
1.26925
1.49279
1.62202
1.68166
1.69819
-0.498428
-0.497329
-0.498144
-0.496318
-0.465266
-0.399011
-0.317965
-0.231832
-0.142028
-0.0446338
0.0470531
0.133222
0.218018
0.4256
0.689497
0.906547
1.0685
1.16116
1.20137
1.21159
-0.491375
-0.493755
-0.498187
-0.493814
-0.454208
-0.378751
-0.29404
-0.210167
-0.126732
-0.0400389
0.0391852
0.106703
0.169759
0.307368
0.487332
0.634179
0.743533
0.808206
0.837326
0.842355
-0.445914
-0.451293
-0.459232
-0.450998
-0.407379
-0.333473
-0.255578
-0.181163
-0.109008
-0.0352531
0.0326845
0.0886223
0.142002
0.224562
0.344423
0.443821
0.51429
0.554661
0.570741
0.572806
-0.323933
-0.329633
-0.335335
-0.32935
-0.29843
-0.249606
-0.195897
-0.14101
-0.0857772
-0.0273289
0.0263745
0.0701333
0.112254
0.163145
0.238642
0.303882
0.350644
0.377719
0.388886
0.389526
-0.164379
-0.167279
-0.171562
-0.172695
-0.164373
-0.147885
-0.123725
-0.09406
-0.0588192
-0.0179735
0.0203911
0.0529897
0.0849385
0.114462
0.160649
0.204955
0.235846
0.254168
0.260493
0.259896
-0.0340619
-0.0354077
-0.0394054
-0.0473362
-0.0566206
-0.0616083
-0.0596656
-0.0500238
-0.0322891
-0.00764596
0.0171019
0.0386682
0.0583928
0.0763667
0.104639
0.133231
0.154492
0.166244
0.170545
0.169417
0.0410414
0.0403488
0.0365314
0.026518
0.0111122
-0.00342303
-0.0127744
-0.0150127
-0.00967836
0.00213452
0.0150777
0.024795
0.0315956
0.0420257
0.0627324
0.0833117
0.09764
0.10486
0.106941
0.105605
0.0721487
0.0715705
0.0683424
0.0595405
0.045294
0.0301104
0.0176065
0.00987943
0.00801312
0.0110488
0.0142149
0.0132092
0.00920386
0.0140283
0.0313078
0.0474325
0.0578861
0.0624463
0.0634845
0.0623767
0.0792814
0.0787964
0.076417
0.0700292
0.0592834
0.0468065
0.0352321
0.0264612
0.0213806
0.0193899
0.0164482
0.00819969
-0.00259524
0.00110109
0.0162557
0.0291017
0.0361917
0.0388282
0.039254
0.0382835
0.0760955
0.0757017
0.0740814
0.0699203
0.0627026
0.0537379
0.044648
0.0369375
0.0314496
0.0279793
0.0232031
0.0130947
0.000703056
0.00564619
0.019225
0.0282107
0.0320401
0.0325995
0.0323628
0.0316701
0.069744
0.0694263
0.0683537
0.0658106
0.0613083
0.0553987
0.0490381
0.0433754
0.0392599
0.0374301
0.0351168
0.0292838
0.0232379
0.0302868
0.0397686
0.0435268
0.043869
0.043191
0.0427624
0.0421666
0.0633899
0.063144
0.0624325
0.0609054
0.0582515
0.0545766
0.0504961
0.0469098
0.0448413
0.0454972
0.049536
0.0537957
0.0577655
0.0653156
0.0687143
0.0689374
0.0681374
0.0674692
0.0670385
0.0661764
0.0579185
0.0577418
0.057256
0.0562593
0.0546809
0.0524518
0.0499558
0.0480696
0.047986
0.0521023
0.0634707
0.0805074
0.0970597
0.102862
0.0995902
0.096183
0.0953258
0.0961944
0.0960613
0.094969
0.0531132
0.0529799
0.052618
0.0518262
0.0506564
0.0493217
0.047765
0.0468025
0.0478533
0.05406
0.0708101
0.0986265
0.125302
0.12941
0.119635
0.113835
0.114456
0.11651
0.116751
0.115358
0.048589
0.0485017
0.0482632
0.0475945
0.0465621
0.0452555
0.0441039
0.0431513
0.0439692
0.0494326
0.0659785
0.0969855
0.128064
0.129153
0.116115
0.112971
0.115146
0.118917
0.118283
0.116245
0.0439313
0.0438561
0.0436754
0.0430817
0.0421621
0.0408082
0.0389767
0.0375981
0.0365352
0.0377579
0.0467911
0.0677715
0.091531
0.08832
0.0766995
0.0762871
0.0832408
0.087879
0.0867827
0.0848031
0.0390725
0.0390255
0.0389414
0.0385777
0.0374682
0.0361343
0.0339819
0.030808
0.026627
0.0209626
0.0145787
0.0126536
0.0120605
0.00466117
0.00338901
0.0108823
0.0192908
0.0220121
0.0208691
0.0193935
0.0336637
0.0336166
0.0334957
0.0333921
0.0328478
0.0314448
0.0291067
0.0249427
0.0178368
0.00403438
-0.0210775
-0.0576585
-0.0962722
-0.101627
-0.0884154
-0.0734464
-0.0669401
-0.0650737
-0.0661373
-0.0673957
0.0280749
0.0279802
0.0280005
0.0279818
0.027812
0.0269565
0.0247789
0.0204867
0.0119044
-0.00683443
-0.0446626
-0.112819
-0.177503
-0.17997
-0.16073
-0.154291
-0.158483
-0.161673
-0.159959
-0.159386
0.0227551
0.0226913
0.022883
0.0233
0.0236836
0.023638
0.0227975
0.0195883
0.0115633
-0.00626727
-0.0469595
-0.111393
-0.175307
-0.179711
-0.179004
-0.195644
-0.216611
-0.225033
-0.222491
-0.220757
0.0167081
0.0166527
0.0171185
0.0178904
0.0189759
0.0204093
0.0209934
0.0197369
0.0156062
0.00369481
-0.021508
-0.0689195
-0.109669
-0.124643
-0.144267
-0.18023
-0.212982
-0.225476
-0.221373
-0.217689
0.00943801
0.00926598
0.00953127
0.0107447
0.0126177
0.0142317
0.0156653
0.0169812
0.0169858
0.0156922
0.00537651
-0.0143948
-0.0296609
-0.0496229
-0.0788255
-0.109721
-0.131711
-0.138832
-0.138427
-0.136027
0.00270743
0.00245965
0.00199362
0.00134755
0.000861568
0.000670031
0.000885803
0.00142373
0.00263771
0.00477745
0.0101736
0.0174782
0.0172973
0.00526102
-0.00998849
-0.0173611
-0.0219352
-0.0249199
-0.0235011
-0.0221103
-5.29522e-05
0.174573
0.378602
0.554858
0.696601
0.809364
0.903229
0.982615
1.01819
0.995017
0.318099
0.443735
0.578468
0.695204
0.793999
0.87611
0.942574
0.989632
1.01331
1.02523
0.54599
0.631912
0.723847
0.805371
0.875575
0.934325
0.980987
1.01503
1.03952
1.05735
0.712195
0.773153
0.837603
0.896593
0.947993
0.991601
1.02735
1.05581
1.07906
1.09727
0.841423
0.886015
0.933209
0.978251
1.01805
1.05276
1.0824
1.10702
1.1277
1.14549
0.947865
0.981644
1.02061
1.05698
1.09031
1.12013
1.14615
1.16798
1.18603
1.20335
1.04183
1.07104
1.1056
1.13823
1.16862
1.19617
1.22021
1.24015
1.2558
1.27287
1.13128
1.16081
1.19518
1.22753
1.25741
1.28424
1.3073
1.32593
1.33941
1.35644
1.22713
1.26049
1.29738
1.33118
1.3614
1.38774
1.40982
1.42719
1.43913
1.45654
1.3425
1.38039
1.41917
1.45356
1.48302
1.50786
1.52831
1.54427
1.55578
1.57386
1.48765
1.52629
1.56247
1.59322
1.61897
1.64112
1.66023
1.6758
1.68826
1.70626
1.6628
1.69453
1.72075
1.74322
1.76324
1.78199
1.79974
1.81624
1.83161
1.84968
1.85148
1.86873
1.88382
1.90007
1.916
1.93055
1.94377
1.95771
1.97526
1.99542
2.03332
2.04282
2.05438
2.0652
2.07449
2.08409
2.09489
2.10627
2.11764
2.133
2.24052
2.2442
2.22926
2.21445
2.20819
2.21388
2.23237
2.26269
2.29487
2.32153
2.54684
2.41198
2.33536
2.29301
2.27559
2.27956
2.30696
2.36338
2.466
2.69037
0.832498
0.830366
0.82588
0.817249
0.805016
0.792875
0.782628
0.774704
0.769044
0.765733
0.765305
0.767965
0.773005
0.780179
0.789532
0.801046
0.813678
0.8247
0.830805
0.833853
0.756965
0.76281
0.769144
0.773629
0.776088
0.77575
0.772994
0.769155
0.765602
0.763278
0.763051
0.765166
0.768761
0.772997
0.776764
0.778619
0.777661
0.774163
0.768988
0.762363
0.748571
0.750867
0.754266
0.757254
0.759318
0.760799
0.761531
0.76118
0.760107
0.759157
0.759242
0.760579
0.762319
0.763564
0.763696
0.762771
0.761195
0.758837
0.75556
0.752633
0.7431
0.744186
0.746014
0.748384
0.750395
0.751805
0.7528
0.753513
0.75386
0.754006
0.754396
0.755099
0.755608
0.755601
0.75513
0.754237
0.752733
0.750621
0.748515
0.747126
0.737951
0.738614
0.739718
0.741414
0.743183
0.744796
0.746064
0.747036
0.747855
0.748556
0.749167
0.749594
0.74968
0.749425
0.748785
0.747671
0.746197
0.744616
0.743273
0.742487
0.733045
0.733505
0.734288
0.735578
0.737053
0.73855
0.739985
0.741235
0.7423
0.743251
0.744026
0.744442
0.744454
0.744067
0.743275
0.742208
0.74102
0.739839
0.738893
0.738369
0.728305
0.728649
0.729257
0.73032
0.731602
0.732957
0.734363
0.735759
0.737054
0.738213
0.739155
0.73966
0.739668
0.739245
0.738523
0.737644
0.73671
0.735779
0.735069
0.734684
0.723684
0.723951
0.724443
0.725349
0.72651
0.727787
0.729147
0.73058
0.732032
0.733413
0.734558
0.735198
0.735285
0.734976
0.734425
0.733733
0.732976
0.732251
0.731713
0.731419
0.719106
0.719317
0.719726
0.720524
0.721606
0.722835
0.724181
0.72565
0.727215
0.728803
0.730192
0.731037
0.731312
0.731198
0.730837
0.730326
0.729742
0.729186
0.72878
0.728549
0.714496
0.714664
0.715014
0.715742
0.716784
0.717993
0.719361
0.720896
0.722589
0.724393
0.72607
0.727209
0.727749
0.727871
0.727713
0.727383
0.726967
0.726551
0.72625
0.726067
0.709782
0.709916
0.710223
0.71091
0.711938
0.71317
0.7146
0.716249
0.718121
0.720182
0.72221
0.723729
0.724591
0.724977
0.725038
0.724893
0.724638
0.724356
0.724142
0.723997
0.70489
0.704994
0.705272
0.705943
0.706995
0.708297
0.709834
0.711655
0.713789
0.716209
0.718684
0.720638
0.721857
0.722534
0.722835
0.72288
0.72278
0.722619
0.722479
0.722364
0.699751
0.69983
0.700088
0.700764
0.701873
0.703284
0.704973
0.707012
0.709458
0.712315
0.715342
0.717839
0.719503
0.720538
0.721122
0.721389
0.721446
0.721402
0.72133
0.721242
0.694283
0.694337
0.694584
0.695286
0.696485
0.698043
0.699938
0.702269
0.705117
0.708529
0.712237
0.715391
0.71759
0.719044
0.719955
0.720486
0.720722
0.720805
0.720797
0.720731
0.688395
0.688424
0.688668
0.689414
0.690729
0.692476
0.694645
0.697359
0.700722
0.704807
0.70935
0.713335
0.716193
0.718147
0.719423
0.720219
0.720691
0.720913
0.720972
0.720928
0.681968
0.681974
0.68221
0.683009
0.684482
0.686482
0.689001
0.692195
0.696227
0.701207
0.706796
0.711734
0.715353
0.717913
0.719654
0.72078
0.721504
0.721876
0.722006
0.721983
0.674798
0.674783
0.675046
0.675918
0.677563
0.679841
0.682783
0.686562
0.691379
0.69739
0.704248
0.710433
0.715035
0.718346
0.720663
0.722255
0.723308
0.723869
0.724078
0.724073
0.666646
0.666604
0.666886
0.66787
0.66975
0.672414
0.675917
0.680482
0.686367
0.693754
0.702183
0.709788
0.715496
0.719668
0.72267
0.724818
0.726257
0.727052
0.72735
0.72736
0.657165
0.6571
0.657425
0.658552
0.660715
0.663857
0.668059
0.673591
0.680764
0.689802
0.700156
0.709548
0.716648
0.7219
0.725746
0.728558
0.730477
0.731558
0.731954
0.73197
0.645791
0.645705
0.646103
0.647438
0.649999
0.653801
0.658951
0.66578
0.674651
0.685797
0.698498
0.709981
0.718678
0.725166
0.729999
0.733572
0.736057
0.737449
0.737943
0.737959
0.631776
0.63167
0.632198
0.633866
0.63701
0.641745
0.648196
0.656755
0.667821
0.681603
0.697148
0.711107
0.721666
0.729587
0.735533
0.73996
0.743069
0.744786
0.745373
0.745384
0.614122
0.613997
0.614735
0.61692
0.620941
0.627032
0.635306
0.646217
0.660148
0.677219
0.696176
0.713006
0.725699
0.735219
0.742434
0.747813
0.751589
0.753637
0.754314
0.754317
0.591409
0.591275
0.592365
0.595369
0.600787
0.608916
0.619849
0.634015
0.651689
0.672831
0.695793
0.71589
0.730954
0.742261
0.750861
0.757298
0.76177
0.764143
0.764895
0.764885
0.561386
0.561281
0.563008
0.567431
0.575175
0.586531
0.601399
0.620035
0.642512
0.668565
0.69614
0.719868
0.737529
0.750794
0.76089
0.768502
0.773711
0.77639
0.777193
0.777161
0.520004
0.520073
0.523216
0.530573
0.542542
0.559164
0.579833
0.604494
0.632975
0.664799
0.697521
0.725154
0.745555
0.760879
0.7726
0.781469
0.787422
0.790323
0.791131
0.791064
0.459533
0.460771
0.468461
0.482293
0.501974
0.5269
0.555681
0.588024
0.623629
0.661928
0.700165
0.731851
0.75505
0.772477
0.785857
0.796006
0.802605
0.805633
0.806341
0.806228
0.387153
0.38911
0.403722
0.427598
0.458179
0.492847
0.530539
0.571138
0.614469
0.660038
0.704848
0.741771
0.768868
0.789349
0.80511
0.816845
0.82442
0.827818
0.828699
0.828702
0.312528
0.319049
0.340484
0.374503
0.415277
0.45951
0.506094
0.555001
0.606144
0.659106
0.710689
0.753072
0.784271
0.808036
0.826496
0.840199
0.848783
0.851902
0.852661
0.8528
0.252028
0.260568
0.286663
0.327608
0.376257
0.428576
0.483137
0.53978
0.598346
0.658362
0.716361
0.763829
0.798728
0.825251
0.84562
0.860594
0.869604
0.873541
0.874936
0.875159
0.202779
0.211878
0.241443
0.28742
0.34212
0.40094
0.462205
0.525656
0.590954
0.657528
0.7215
0.773599
0.81171
0.840433
0.862339
0.878422
0.888549
0.893197
0.894872
0.895137
0.161631
0.170937
0.202814
0.252614
0.312186
0.376365
0.443314
0.512696
0.584018
0.656559
0.726019
0.782287
0.823175
0.853764
0.876932
0.893921
0.904874
0.910084
0.911995
0.91229
0.126136
0.135504
0.169101
0.221958
0.285437
0.354123
0.426015
0.500641
0.577389
0.655395
0.729888
0.789928
0.833225
0.86534
0.889467
0.907191
0.918726
0.924438
0.926472
0.926783
0.0946551
0.104039
0.138911
0.194309
0.261006
0.333537
0.409764
0.489098
0.570811
0.653866
0.733049
0.796548
0.841988
0.875382
0.900266
0.918472
0.93036
0.936414
0.938566
0.938897
0.0658991
0.0753242
0.11128
0.16878
0.238199
0.314054
0.394123
0.47772
0.563999
0.651795
0.735421
0.80221
0.849652
0.884212
0.909756
0.928309
0.940448
0.946708
0.94888
0.949222
0.039005
0.0484813
0.0854426
0.1447
0.216517
0.295275
0.378763
0.46623
0.556746
0.649023
0.736946
0.806962
0.856384
0.892083
0.91826
0.937139
0.949404
0.955766
0.957914
0.958189
0.0133897
0.0229735
0.060834
0.121613
0.195591
0.27691
0.363463
0.454456
0.5489
0.645437
0.73757
0.810848
0.862323
0.899236
0.926072
0.945275
0.957679
0.964013
0.966162
0.966358
-0.011409
-0.00162197
0.037023
0.0992896
0.175154
0.258761
0.348075
0.442275
0.540367
0.640956
0.737247
0.813901
0.867584
0.905847
0.933439
0.953009
0.965543
0.971849
0.973913
0.974118
-0.0356091
-0.0255842
0.0138405
0.077539
0.155062
0.240712
0.332508
0.429628
0.531088
0.635529
0.735944
0.816126
0.872241
0.912037
0.940515
0.960527
0.973199
0.979449
0.981387
0.981551
-0.0592797
-0.0490169
-0.00875351
0.0561944
0.135237
0.222718
0.316731
0.416488
0.521042
0.629117
0.733611
0.817499
0.876309
0.917876
0.947391
0.967897
0.980673
0.986791
0.988569
0.988658
-0.0825411
-0.0719411
-0.0309457
0.0352196
0.115647
0.204764
0.300753
0.402873
0.510244
0.621716
0.730192
0.817943
0.879759
0.923399
0.954129
0.975161
0.987978
0.993887
0.995438
0.995437
-0.105342
-0.0944426
-0.0526616
0.0146068
0.0962989
0.186875
0.284619
0.388834
0.498731
0.613325
0.725635
0.81736
0.882519
0.928617
0.96081
0.982396
0.995102
1.00064
1.00192
1.00184
-0.127708
-0.116476
-0.0738814
-0.00559879
0.0772316
0.169097
0.268382
0.374441
0.486568
0.603976
0.719906
0.815655
0.884469
0.933485
0.967531
0.98974
1.0021
1.00702
1.00795
1.0078
-0.149437
-0.137947
-0.0945739
-0.0253494
0.0585046
0.151509
0.252116
0.359773
0.473839
0.59374
0.712999
0.812729
0.885441
0.937887
0.974386
0.99749
1.00922
1.01305
1.01345
1.01322
-0.170661
-0.158807
-0.1147
-0.044611
0.0401583
0.134159
0.23592
0.34492
0.460643
0.582711
0.704935
0.808474
0.885237
0.941593
0.98135
1.00609
1.01711
1.01909
1.01842
1.01806
-0.191203
-0.179019
-0.134216
-0.063325
0.0222773
0.117134
0.219877
0.330008
0.447097
0.570967
0.695769
0.802814
0.883646
0.944244
0.988122
1.01586
1.02706
1.02665
1.0235
1.0221
-0.211115
-0.198617
-0.153064
-0.0814316
0.00490499
0.100504
0.204074
0.315119
0.433319
0.558654
0.685593
0.795689
0.880473
0.945378
0.993934
1.02635
1.0403
1.03927
1.03206
1.02239
-0.230308
-0.217555
-0.171337
-0.0990815
-0.0121684
0.0839852
0.188167
0.299842
0.418843
0.545245
0.673839
0.786469
0.875126
0.944389
0.997634
1.03613
1.05623
1.05805
1.0483
1.04004
-0.248728
-0.235748
-0.189029
-0.116229
-0.0289293
0.0675748
0.172179
0.28416
0.403631
0.530635
0.660342
0.774821
0.866927
0.940522
0.996794
1.03964
1.06273
1.06979
1.03291
0.979594
-0.266084
-0.252416
-0.206028
-0.132804
-0.0454801
0.0511369
0.156064
0.268196
0.387751
0.514899
0.64506
0.760601
0.854899
0.933439
0.989401
1.02579
1.04988
1.03822
0.981375
0.916939
-0.282703
-0.268113