/*--------------------------------*- C++ -*----------------------------------*\
| =========                 |                                                 |
| \\      /  F ield         | OpenFOAM: The Open Source CFD Toolbox           |
|  \\    /   O peration     | Version:  4.0                                   |
|   \\  /    A nd           | Web:      www.OpenFOAM.org                      |
|    \\/     M anipulation  |                                                 |
\*---------------------------------------------------------------------------*/
FoamFile
{
    version     2.0;
    format      ascii;
    class       volScalarField;
    location    "13";
    object      p;
}
// * * * * * * * * * * * * * * * * * * * * * * * * * * * * * * * * * * * * * //

dimensions      [0 2 -2 0 0 0 0];

internalField   nonuniform List<scalar> 
2200
(
0.428221
0.406761
0.390943
0.37535
0.360901
0.348673
0.338576
0.330682
0.325127
0.322191
0.32245
0.325824
0.3317
0.339833
0.350099
0.362451
0.376983
0.392624
0.408472
0.429947
0.360545
0.357312
0.354506
0.35055
0.345328
0.339056
0.332642
0.326949
0.322615
0.320246
0.320476
0.323338
0.328021
0.333968
0.34056
0.346948
0.352252
0.356271
0.359118
0.362364
0.320177
0.32054
0.322902
0.324611
0.325399
0.324807
0.323054
0.320548
0.318066
0.316474
0.316771
0.318892
0.321751
0.32453
0.326474
0.327204
0.326514
0.324872
0.322558
0.322215
0.297276
0.29884
0.301822
0.304676
0.307493
0.309891
0.311484
0.312032
0.311822
0.311381
0.311761
0.312763
0.313391
0.313159
0.311801
0.309569
0.306874
0.304102
0.301173
0.299623
0.283147
0.285044
0.288084
0.29119
0.294288
0.297348
0.30014
0.302351
0.303893
0.304746
0.305133
0.304953
0.303965
0.302128
0.299604
0.29673
0.293757
0.290744
0.287769
0.28588
0.27703
0.278416
0.280846
0.283858
0.286875
0.289693
0.292114
0.294347
0.296326
0.297777
0.298236
0.297641
0.296349
0.294591
0.292464
0.289859
0.286983
0.284059
0.281681
0.280301
0.276368
0.277125
0.278693
0.281256
0.283976
0.286409
0.288425
0.290299
0.291948
0.293237
0.293809
0.293534
0.292666
0.291384
0.289762
0.287623
0.285101
0.282663
0.281143
0.280399
0.277716
0.278033
0.278871
0.280552
0.282492
0.284402
0.286179
0.287852
0.289289
0.290451
0.291135
0.291146
0.290608
0.289679
0.288474
0.28695
0.28527
0.28376
0.282991
0.282668
0.277776
0.277859
0.278169
0.278896
0.279851
0.281016
0.282411
0.283934
0.28541
0.286745
0.287666
0.287893
0.287598
0.286937
0.286189
0.285447
0.284766
0.284224
0.283995
0.28392
0.275389
0.275414
0.275495
0.275765
0.276201
0.276817
0.277744
0.278981
0.280398
0.281894
0.283133
0.28378
0.283863
0.283677
0.283428
0.283279
0.283159
0.283093
0.283102
0.283072
0.272052
0.272006
0.272132
0.272404
0.272835
0.273393
0.274169
0.275202
0.276502
0.278045
0.279502
0.280577
0.281176
0.281498
0.281639
0.2817
0.281685
0.281666
0.281679
0.281688
0.268643
0.268646
0.268797
0.269149
0.269658
0.270345
0.271264
0.272411
0.273839
0.275564
0.277291
0.278681
0.279686
0.280215
0.280549
0.280711
0.280739
0.280726
0.280725
0.280728
0.264947
0.264973
0.265092
0.265381
0.265891
0.266599
0.267611
0.26896
0.270694
0.272822
0.275038
0.276797
0.278074
0.278891
0.279412
0.279726
0.279898
0.279992
0.28004
0.280038
0.260476
0.260472
0.260628
0.260901
0.261372
0.262096
0.263176
0.264697
0.266762
0.269401
0.272265
0.274604
0.276251
0.277415
0.27821
0.278742
0.279089
0.279307
0.279415
0.279417
0.25529
0.255282
0.255472
0.255803
0.256341
0.257191
0.258451
0.260256
0.262746
0.266001
0.26961
0.272647
0.274802
0.276382
0.277455
0.278173
0.278638
0.278921
0.279058
0.279063
0.249336
0.249331
0.249556
0.250028
0.250763
0.25185
0.253438
0.255688
0.258785
0.262843
0.267359
0.271197
0.274008
0.276005
0.277343
0.278243
0.278822
0.27917
0.279332
0.279332
0.24269
0.242694
0.24297
0.243522
0.244426
0.245798
0.247808
0.250658
0.254566
0.25968
0.265354
0.270175
0.273709
0.276172
0.277851
0.278971
0.279686
0.280109
0.280305
0.280303
0.234825
0.234835
0.23521
0.23594
0.237102
0.23884
0.241375
0.244973
0.24991
0.256355
0.263469
0.269486
0.273873
0.276945
0.27905
0.280459
0.281374
0.281926
0.282182
0.282178
0.225653
0.225657
0.226107
0.226995
0.228459
0.230694
0.23395
0.238555
0.244828
0.252956
0.261851
0.269333
0.274774
0.278595
0.281211
0.282957
0.284079
0.284741
0.285043
0.285033
0.214436
0.214475
0.215116
0.216332
0.21826
0.221151
0.225347
0.23126
0.239259
0.249505
0.260577
0.269828
0.276533
0.281237
0.284455
0.286603
0.287997
0.288839
0.28923
0.289222
0.200911
0.200925
0.201719
0.203282
0.205833
0.209704
0.215231
0.222926
0.23316
0.246048
0.259762
0.271126
0.27935
0.285136
0.28911
0.291776
0.293497
0.294508
0.294964
0.294935
0.18378
0.183909
0.185103
0.187318
0.190798
0.195967
0.203327
0.213412
0.226528
0.24267
0.259524
0.273366
0.283371
0.290428
0.295288
0.298549
0.300675
0.301957
0.302542
0.302522
0.1624
0.162486
0.164076
0.167215
0.172127
0.179342
0.189328
0.202591
0.219352
0.239419
0.259944
0.276647
0.288721
0.297295
0.303282
0.307376
0.310056
0.311648
0.312355
0.312285
0.133853
0.134401
0.137009
0.141758
0.149065
0.159296
0.17302
0.190543
0.211831
0.236547
0.261278
0.281209
0.295629
0.305966
0.313266
0.318324
0.321719
0.323775
0.324722
0.324632
0.0961476
0.0969493
0.10129
0.109231
0.120586
0.135555
0.154483
0.177403
0.204151
0.234216
0.263588
0.287026
0.304009
0.316313
0.325213
0.331577
0.335992
0.338793
0.340106
0.339863
0.0459735
0.0466708
0.0548323
0.068254
0.0863305
0.108224
0.133941
0.163502
0.196649
0.232666
0.267024
0.294181
0.313947
0.328459
0.339159
0.347072
0.352788
0.356412
0.357774
0.357399
-0.0235372
-0.0191786
-0.00144438
0.0216345
0.0485677
0.0786596
0.11224
0.149362
0.189591
0.232252
0.2723
0.303908
0.327241
0.344803
0.358182
0.368464
0.376431
0.382323
0.384595
0.38457
-0.106476
-0.0909331
-0.060104
-0.0263344
0.0100826
0.0486614
0.0905619
0.135457
0.182957
0.232671
0.279042
0.315844
0.34345
0.364761
0.381679
0.395315
0.406218
0.414626
0.420959
0.421833
-0.171408
-0.15398
-0.114511
-0.072797
-0.0277602
0.0195685
0.0697386
0.122135
0.176753
0.233271
0.285579
0.327052
0.35824
0.382381
0.401453
0.416902
0.429314
0.438677
0.444131
0.444887
-0.219786
-0.204138
-0.160374
-0.113881
-0.0620757
-0.00729595
0.0500587
0.109376
0.170768
0.233649
0.291335
0.33665
0.370322
0.396035
0.415954
0.431623
0.444164
0.453518
0.458955
0.459798
-0.259388
-0.243899
-0.198145
-0.148779
-0.0917192
-0.0313481
0.0318208
0.0972457
0.164686
0.233175
0.295412
0.34365
0.378947
0.405466
0.425739
0.441364
0.454013
0.462989
0.468772
0.469561
-0.293408
-0.277589
-0.229758
-0.178128
-0.117182
-0.0527961
0.0149881
0.0855773
0.158185
0.231629
0.297961
0.348816
0.385488
0.412659
0.4333
0.449045
0.461621
0.470677
0.476399
0.477064
-0.32327
-0.307512
-0.257253
-0.203229
-0.139303
-0.0720992
-0.000631373
0.074258
0.151349
0.229385
0.299637
0.352999
0.391146
0.419146
0.440207
0.45613
0.468614
0.47776
0.483122
0.483884
-0.350015
-0.334514
-0.282232
-0.225689
-0.159183
-0.0896968
-0.015168
0.0633336
0.144385
0.226703
0.300797
0.356903
0.396682
0.425516
0.446979
0.463122
0.475517
0.484641
0.489896
0.490607
-0.374598
-0.359106
-0.305901
-0.246934
-0.177985
-0.106191
-0.0288593
0.0527787
0.137405
0.22383
0.301908
0.360818
0.402189
0.431947
0.453799
0.470016
0.482405
0.491399
0.496647
0.497367
-0.397793
-0.381804
-0.328529
-0.267609
-0.196525
-0.122292
-0.0422152
0.0422879
0.130207
0.220442
0.302219
0.36394
0.40725
0.438082
0.460543
0.477173
0.489616
0.498577
0.503761
0.504394
-0.41949
-0.403393
-0.349838
-0.287592
-0.214936
-0.138433
-0.0557764
0.0313901
0.122359
0.21616
0.301798
0.366943
0.412521
0.444766
0.467836
0.484626
0.497084
0.505921
0.511072
0.511764
-0.439892
-0.423919
-0.369843
-0.306681
-0.232947
-0.15461
-0.0697321
0.019878
0.113772
0.211154
0.300937
0.369394
0.417371
0.451088
0.475155
0.492485
0.505195
0.514017
0.519069
0.519649
-0.459635
-0.443397
-0.38888
-0.324988
-0.250378
-0.170609
-0.0839179
0.00787441
0.104493
0.205194
0.298619
0.370807
0.422136
0.458223
0.483381
0.501218
0.513892
0.522468
0.527457
0.528028
-0.47915
-0.462187
-0.407353
-0.342768
-0.267257
-0.186295
-0.0981198
-0.00447388
0.094497
0.198166
0.295487
0.371864
0.426469
0.465067
0.491806
0.510263
0.523177
0.531923
0.53656
0.536928
-0.498398
-0.480613
-0.425485
-0.360184
-0.283732
-0.201698
-0.112271
-0.0170642
0.083955
0.190407
0.291594
0.371782
0.43009
0.471768
0.500837
0.520505
0.533527
0.541457
0.545833
0.546065
-0.517188
-0.49881
-0.443285
-0.377242
-0.299896
-0.216899
-0.126379
-0.0298341
0.0729565
0.181775
0.286016
0.370365
0.433071
0.478714
0.510821
0.531856
0.544767
0.552329
0.555867
0.555673
-0.535353
-0.516606
-0.460646
-0.393868
-0.315758
-0.23193
-0.140465
-0.0427908
0.0614346
0.172194
0.279402
0.367768
0.434476
0.484653
0.520706
0.544682
0.558374
0.563929
0.56517
0.564581
-0.55283
-0.533836
-0.477425
-0.409983
-0.331254
-0.246744
-0.154496
-0.0558859
0.0495057
0.161915
0.271745
0.363464
0.434693
0.489506
0.530475
0.55893
0.57486
0.578525
0.575399
0.572398
-0.569577
-0.550364
-0.493537
-0.425522
-0.346294
-0.261243
-0.168371
-0.0690275
0.0373452
0.151073
0.262797
0.357521
0.432692
0.492522
0.539566
0.574513
0.596154
0.598511
0.590166
0.5942
-0.585579
-0.566176
-0.508933
-0.440426
-0.360795
-0.275325
-0.181989
-0.0820989
0.025006
0.139706
0.252792
0.34983
0.428593
0.493064
0.545715
0.588831
0.62144
0.623373
0.581928
0.52786
-0.600788
-0.581314
-0.523672
-0.454767
-0.374848
-0.289103
-0.195479
-0.0952524
0.0122586
0.127548
0.241572
0.340009
0.421068
0.489794
0.54807
0.599974
0.647807
0.682985
0.713982
0.766239
-0.615168
-0.595841
-0.537862
-0.468694
-0.38863
-0.302789
-0.209105
-0.108844
-0.00128646
0.114157
0.228595
0.327487
0.410293
0.481123
0.540489
0.589992
0.627722
0.654266
0.644569
0.648394
-0.628748
-0.609671
-0.551463
-0.482169
-0.402077
-0.316299
-0.22276
-0.12274
-0.0154759
0.0995784
0.213547
0.311872
0.393576
0.463437
0.519657
0.560466
0.568794
0.539072
0.490917
0.485583
-0.641612
-0.622811
-0.564479
-0.495205
-0.4152
-0.329643
-0.236426
-0.13687
-0.030284
0.0837758
0.19647
0.293205
0.371347
0.43525
0.484301
0.499465
0.468327
0.402282
0.331849
0.325772
-0.653782
-0.635318
-0.576937
-0.507826
-0.428018
-0.342827
-0.250095
-0.151252
-0.0456501
0.0670136
0.177701
0.272277
0.344984
0.395585
0.421326
0.406899
0.358586
0.255106
0.164891
0.150371
-0.665648
-0.647616
-0.589213
-0.520382
-0.440863
-0.356145
-0.264024
-0.166072
-0.0617139
0.0490273
0.156855
0.247801
0.314139
0.349279
0.339299
0.294994
0.185947
0.0563398
-0.0573389
-0.0795236
-0.678007
-0.660423
-0.601949
-0.533441
-0.454264
-0.370035
-0.278586
-0.181636
-0.0787849
0.029652
0.133812
0.220017
0.278222
0.292951
0.24462
0.146935
-0.0261855
-0.190535
-0.325151
-0.35044
-0.691316
-0.674078
-0.615395
-0.547199
-0.468367
-0.384601
-0.293866
-0.198043
-0.0968541
0.00907252
0.10897
0.190012
0.237692
0.222609
0.143309
-0.0247294
-0.254126
-0.49022
-0.684709
-0.733646
-0.705612
-0.688605
-0.62955
-0.561658
-0.483125
-0.399792
-0.30981
-0.215153
-0.115777
-0.0127933
0.0821861
0.156308
0.191079
0.139487
0.0211375
-0.205527
-0.482273
-0.818428
-1.1761
-1.31556
-0.720908
-0.704026
-0.644437
-0.576894
-0.498538
-0.415626
-0.326429
-0.233016
-0.135645
-0.0358751
0.0539039
0.121077
0.139199
0.0460737
-0.130315
-0.393024
-0.687913
-1.10219
-1.7596
-2.36824
-0.737186
-0.720327
-0.660087
-0.59295
-0.514569
-0.43206
-0.343676
-0.251517
-0.156189
-0.0598675
0.0244031
0.0828535
0.0839918
-0.0453632
-0.28533
-0.594894
-0.869491
-1.18759
-1.87196
-3.6294
-0.754427
-0.737408
-0.676542
-0.609914
-0.531282
-0.449224
-0.361695
-0.270805
-0.177621
-0.0850383
-0.00631285
0.0423955
0.0206995
-0.12539
-0.413391
-0.747054
-0.971644
-1.07512
-1.1373
-1.60004
-0.772545
-0.755239
-0.694034
-0.627954
-0.548915
-0.467481
-0.380943
-0.291514
-0.200713
-0.112286
-0.0394731
0.000169348
-0.0427735
-0.190747
-0.493304
-0.802213
-0.987085
-1.03545
-0.995312
-1.04986
-0.791281
-0.773689
-0.712627
-0.646956
-0.567451
-0.486852
-0.401447
-0.313587
-0.225423
-0.141698
-0.0742056
-0.043828
-0.106858
-0.251357
-0.548215
-0.810207
-0.964361
-1.01674
-1.04078
-1.06619
-0.81042
-0.792544
-0.732279
-0.666632
-0.586766
-0.507265
-0.422976
-0.336868
-0.25164
-0.17272
-0.110829
-0.0862803
-0.171382
-0.321507
-0.601957
-0.826948
-0.957163
-0.960973
-0.987823
-0.986715
-0.829734
-0.811726
-0.752557
-0.686579
-0.60672
-0.52847
-0.445314
-0.361144
-0.27898
-0.204448
-0.148787
-0.12696
-0.232628
-0.407421
-0.660253
-0.840568
-0.954135
-0.956032
-0.963501
-0.96628
-0.84884
-0.830821
-0.772696
-0.706369
-0.626961
-0.550171
-0.468013
-0.385958
-0.306682
-0.236111
-0.187218
-0.162749
-0.283474
-0.501633
-0.736149
-0.868904
-0.93453
-0.961914
-0.949633
-0.958154
-0.867385
-0.849556
-0.792033
-0.725508
-0.647136
-0.571724
-0.490351
-0.411068
-0.333815
-0.266497
-0.225855
-0.204185
-0.338406
-0.590354
-0.830023
-0.920894
-0.875521
-0.931887
-0.937085
-0.945961
-0.884393
-0.866835
-0.809679
-0.743256
-0.66704
-0.592187
-0.512408
-0.436026
-0.360183
-0.29378
-0.257252
-0.226705
-0.383677
-0.674974
-0.930745
-1.03475
-0.970152
-0.982752
-1.005
-1.00815
-0.89923
-0.882068
-0.825396
-0.759291
-0.685306
-0.610315
-0.533475
-0.459842
-0.38587
-0.318571
-0.28014
-0.229053
-0.395769
-0.715524
-1.03661
-1.29536
-1.34637
-1.28337
-1.26306
-1.24464
-0.910584
-0.894071
-0.838175
-0.77253
-0.699889
-0.626076
-0.551972
-0.481506
-0.409261
-0.341905
-0.296181
-0.238222
-0.402925
-0.730378
-1.15866
-1.60565
-1.80532
-1.745
-1.64035
-1.57011
-0.917291
-0.90133
-0.846374
-0.781332
-0.70977
-0.638029
-0.566955
-0.501384
-0.434372
-0.363802
-0.316777
-0.246202
-0.3819
-0.685437
-1.07179
-1.48313
-1.66727
-1.61628
-1.47488
-1.42426
-0.917659
-0.902355
-0.848666
-0.784456
-0.714152
-0.644768
-0.577674
-0.517367
-0.461377
-0.400075
-0.328352
-0.259246
-0.318209
-0.438535
-0.540649
-0.647929
-0.686206
-0.644118
-0.576205
-0.501262
-0.910308
-0.895718
-0.843363
-0.780437
-0.711863
-0.645115
-0.582855
-0.528781
-0.484841
-0.453338
-0.376211
-0.310629
-0.216409
-0.0863674
0.105572
0.271079
0.383649
0.456462
0.491707
0.512677
-0.893014
-0.879644
-0.829613
-0.768284
-0.701542
-0.638234
-0.581827
-0.537976
-0.517392
-0.527128
-0.512149
-0.414321
-0.137114
0.18573
0.552348
0.889677
1.11041
1.21011
1.23472
1.24706
-0.865333
-0.853147
-0.805437
-0.746473
-0.68282
-0.624265
-0.574566
-0.546256
-0.565206
-0.638916
-0.741665
-0.568628
-0.164307
0.285881
0.757801
1.17315
1.4167
1.50733
1.5297
1.53524
-0.825529
-0.815176
-0.770087
-0.715104
-0.656018
-0.602032
-0.55942
-0.54786
-0.604284
-0.76341
-1.06108
-0.838442
-0.297448
0.272583
0.792358
1.17423
1.39933
1.47325
1.50309
1.51238
-0.772478
-0.76448
-0.724039
-0.674354
-0.619049
-0.568528
-0.531204
-0.526571
-0.595789
-0.742008
-1.29797
-1.03121
-0.300018
0.24603
0.706768
1.00892
1.18855
1.25611
1.28914
1.30055
-0.708777
-0.702869
-0.666244
-0.620865
-0.569489
-0.522
-0.485218
-0.476285
-0.532275
-0.676681
-0.998934
-0.744719
-0.178657
0.25093
0.590284
0.803836
0.925385
0.986974
1.02517
1.03883
-0.638186
-0.632011
-0.596975
-0.555057
-0.50771
-0.461864
-0.420916
-0.397084
-0.409924
-0.474489
-0.564776
-0.289951
0.0549984
0.327393
0.531487
0.648684
0.725163
0.773217
0.805555
0.818079
-0.542631
-0.537749
-0.510267
-0.475656
-0.433155
-0.389944
-0.346687
-0.30926
-0.285167
-0.278418
-0.245321
-0.0213892
0.18736
0.362138
0.479286
0.550176
0.598466
0.631057
0.652344
0.660091
-0.422281
-0.419963
-0.404331
-0.380969
-0.348702
-0.312732
-0.27269
-0.230426
-0.187358
-0.142169
-0.0649617
0.0997964
0.238582
0.350049
0.420741
0.466343
0.498379
0.51864
0.531364
0.53404
-0.306942
-0.306042
-0.298611
-0.28389
-0.26268
-0.236197
-0.203216
-0.163486
-0.114742
-0.0479872
0.0269363
0.144501
0.243115
0.312219
0.355505
0.384122
0.40373
0.415352
0.421017
0.422254
-0.203873
-0.203803
-0.200367
-0.192751
-0.180668
-0.163618
-0.139468
-0.106926
-0.0633723
-0.00164981
0.0696539
0.162154
0.225455
0.268786
0.295846
0.31352
0.325052
0.331768
0.335718
0.337438
-0.119972
-0.120674
-0.119384
-0.115806
-0.109571
-0.099741
-0.0835263
-0.058993
-0.0239235
0.0267479
0.0871809
0.155318
0.198471
0.227584
0.245601
0.257224
0.264823
0.269725
0.272611
0.273225
-0.0579495
-0.0589315
-0.0593767
-0.058289
-0.0549111
-0.0487771
-0.0379754
-0.0204918
0.00594689
0.0451942
0.0923841
0.141058
0.172215
0.193069
0.206041
0.214235
0.219337
0.222122
0.223079
0.222752
-0.0152461
-0.016141
-0.0176757
-0.0183733
-0.0168927
-0.0127263
-0.0048072
0.00790841
0.0274412
0.0570644
0.0928606
0.127891
0.150778
0.166044
0.175443
0.180832
0.183505
0.18426
0.184032
0.183451
0.0124178
0.011722
0.0100367
0.00832875
0.00829251
0.0106835
0.0165237
0.0264946
0.0416631
0.064207
0.0911571
0.116594
0.133474
0.144585
0.15112
0.154326
0.155296
0.154855
0.154129
0.153562
0.0289245
0.0284144
0.027055
0.0253869
0.0246409
0.0254997
0.0293143
0.0369287
0.0490169
0.0666446
0.0872971
0.10608
0.118617
0.126632
0.131002
0.132802
0.133019
0.132307
0.131607
0.131117
0.0381766
0.037785
0.0368789
0.0357784
0.0351307
0.0352599
0.037512
0.0426959
0.0518304
0.0655335
0.0816194
0.0957844
0.105153
0.110905
0.113869
0.114974
0.115055
0.114541
0.114055
0.11367
0.0438685
0.0435625
0.043021
0.0424031
0.0421097
0.0422658
0.0437358
0.0470037
0.0533405
0.0634084
0.0756115
0.0861915
0.0930987
0.0972296
0.0993795
0.100185
0.100266
0.0999272
0.0996083
0.0993231
0.0479513
0.0477254
0.0473443
0.0468517
0.0466288
0.0468788
0.048047
0.0503018
0.0546023
0.0615576
0.0702865
0.0778839
0.08285
0.0858291
0.0874249
0.0880022
0.0879906
0.0876686
0.0874189
0.0872051
0.0502871
0.0501082
0.0497393
0.0491451
0.0487336
0.048796
0.0496192
0.0513623
0.054491
0.0593731
0.0654672
0.0707927
0.0743273
0.0764589
0.0775668
0.0778946
0.0777543
0.0773998
0.0771711
0.0770031
0.050433
0.0502814
0.0499122
0.0492584
0.0487151
0.0485245
0.0489003
0.0501366
0.0524749
0.0561381
0.0605832
0.0644096
0.066944
0.0684306
0.0691285
0.0692656
0.0690673
0.0687256
0.068525
0.0683896
0.0487823
0.0486609
0.0483493
0.0477687
0.047269
0.0469867
0.0470508
0.0477941
0.0494079
0.0521449
0.0554855
0.0583227
0.0601504
0.061174
0.0615987
0.0616409
0.0614527
0.0611646
0.0610049
0.0608993
0.0461075
0.0460199
0.0457891
0.0453317
0.0449494
0.0446985
0.0446547
0.0450873
0.0461093
0.0480271
0.0504438
0.0525019
0.0537936
0.0544971
0.0547612
0.0547648
0.0546063
0.054376
0.0542532
0.0541726
0.0428411
0.0427805
0.0426091
0.0422497
0.0419559
0.0417442
0.0416756
0.0419556
0.0425974
0.043893
0.0455509
0.0469791
0.0478626
0.0483391
0.0484988
0.0484773
0.0483397
0.0481523
0.0480544
0.0479924
0.0390907
0.0390452
0.0389085
0.0386212
0.038383
0.0381932
0.0381043
0.0382856
0.0387003
0.0395911
0.0407177
0.0416953
0.0422908
0.0426035
0.0426852
0.0426394
0.0425133
0.0423557
0.0422737
0.0422258
0.0349712
0.0349363
0.0348254
0.0345992
0.0344042
0.0342361
0.0341326
0.0342338
0.0344956
0.0351199
0.0358981
0.0365709
0.0369644
0.0371576
0.0371867
0.0371289
0.0370176
0.036888
0.0368201
0.0367824
0.0305964
0.0305698
0.0304833
0.0303139
0.0301602
0.0300208
0.0299182
0.0299625
0.0301127
0.0305375
0.0310734
0.0315339
0.0317889
0.0319057
0.0319072
0.0318486
0.0317546
0.0316509
0.0315958
0.0315658
0.0260712
0.0260514
0.0259848
0.0258597
0.0257407
0.0256313
0.0255413
0.0255536
0.0256334
0.0259103
0.0262662
0.026574
0.0267356
0.0268002
0.0267831
0.0267252
0.0266445
0.0265594
0.0265146
0.0264921
0.0214505
0.0214358
0.021386
0.0212953
0.0212037
0.0211191
0.021046
0.0210437
0.0210836
0.0212594
0.0214849
0.0216792
0.0217737
0.0218038
0.0217792
0.0217274
0.0216612
0.021594
0.0215585
0.0215412
0.0167662
0.0167549
0.0167154
0.0166471
0.0165757
0.0165097
0.0164491
0.016436
0.0164513
0.0165613
0.0167049
0.0168263
0.0168786
0.0168886
0.016862
0.0168172
0.0167632
0.0167097
0.0166812
0.0166674
0.0120252
0.0120184
0.0119903
0.0119412
0.0118885
0.01184
0.0117941
0.011779
0.0117794
0.01184
0.0119243
0.0119957
0.0120228
0.0120224
0.0119968
0.0119596
0.0119174
0.0118767
0.0118558
0.0118469
0.00724104
0.00723582
0.00721742
0.00718665
0.0071538
0.0071247
0.00709659
0.00708547
0.00707939
0.00711102
0.00715648
0.00719376
0.00720252
0.00719744
0.00717945
0.00715532
0.00712747
0.00709973
0.00708529
0.00707847
0.00242929
0.00242716
0.0024176
0.00240227
0.00238814
0.00237772
0.00236567
0.00236253
0.00235961
0.0023716
0.0023858
0.0023986
0.00240097
0.00239863
0.00239117
0.00238198
0.00236984
0.00235535
0.00234845
0.00234503
-1.65116
-0.701721
-0.424227
-0.116649
0.0940397
0.277556
0.433789
0.592833
0.761706
0.840715
-0.579541
-0.12287
-0.081017
0.125597
0.274414
0.407664
0.524669
0.62724
0.664875
0.617829
-0.141269
0.100082
0.157643
0.302447
0.407376
0.501869
0.580427
0.638928
0.647126
0.657177
0.125354
0.289571
0.330313
0.446074
0.513157
0.580542
0.632485
0.668838
0.680489
0.702752
0.328733
0.44311
0.472148
0.55635
0.602124
0.650494
0.6866
0.712908
0.724363
0.75464
0.484201
0.5632
0.593746
0.646194
0.684454
0.718151
0.744812
0.766213
0.78159
0.80915
0.61342
0.66934
0.696477
0.728649
0.758891
0.784454
0.805841
0.825746
0.84144
0.867595
0.72334
0.763689
0.786021
0.808314
0.830874
0.851579
0.869919
0.888884
0.904134
0.927493
0.821634
0.851613
0.869436
0.885535
0.902717
0.919613
0.935803
0.953268
0.96676
0.989042
0.912395
0.933775
0.949206
0.962884
0.976913
0.991018
1.00458
1.01925
1.03099
1.05079
0.999678
1.01569
1.02976
1.04179
1.05402
1.06583
1.07702
1.08889
1.09657
1.11347
1.08508
1.0981
1.11214
1.12409
1.1349
1.14484
1.15366
1.1619
1.16541
1.17659
1.17489
1.18594
1.19962
1.20902
1.21654
1.22363
1.23072
1.23731
1.23826
1.24555
1.27358
1.27836
1.28636
1.29074
1.29395
1.29843
1.30445
1.31223
1.3162
1.32613
1.38682
1.37302
1.36557
1.35988
1.35715
1.35853
1.3651
1.37771
1.39253
1.42216
1.50761
1.45206
1.42111
1.40408
1.39597
1.39602
1.40472
1.42404
1.45588
1.52505
)
;

boundaryField
{
    wall-4
    {
        type            zeroGradient;
    }
    pressure-outlet-7
    {
        type            fixedValue;
        value           uniform 0;
    }
    velocity-inlet-6
    {
        type            zeroGradient;
    }
    velocity-inlet-5
    {
        type            zeroGradient;
    }
    frontAndBackPlanes
    {
        type            empty;
    }
}


// ************************************************************************* //
