/*--------------------------------*- C++ -*----------------------------------*\
| =========                 |                                                 |
| \\      /  F ield         | OpenFOAM: The Open Source CFD Toolbox           |
|  \\    /   O peration     | Version:  4.0                                   |
|   \\  /    A nd           | Web:      www.OpenFOAM.org                      |
|    \\/     M anipulation  |                                                 |
\*---------------------------------------------------------------------------*/
FoamFile
{
    version     2.0;
    format      ascii;
    class       surfaceScalarField;
    location    "13";
    object      phi;
}
// * * * * * * * * * * * * * * * * * * * * * * * * * * * * * * * * * * * * * //

dimensions      [0 3 -1 0 0 0 0];

internalField   nonuniform List<scalar> 
4262
(
0.106736
0.471252
0.0951115
0.70521
0.0689906
0.858424
0.0471391
1.02062
0.0306926
1.21496
0.0194421
1.44947
0.0122179
1.73309
0.00729568
2.07596
0.00347426
2.48906
-0.000222349
2.98599
-0.00392394
2.98599
-0.00768587
2.48901
-0.0124729
2.07582
-0.0195922
1.73298
-0.030792
1.44942
-0.0472343
1.21496
-0.0690804
1.02061
-0.0951704
0.858393
-0.106773
0.705189
0.471215
0.1126
0.358652
0.134209
0.683602
0.11918
0.873453
0.0969357
1.04286
0.0743166
1.23758
0.0528334
1.47095
0.0345525
1.75137
0.0203344
2.09018
0.00898893
2.50041
-0.000557778
2.99554
-0.0100906
2.99553
-0.0212796
2.50019
-0.0354765
2.09002
-0.0537651
1.75127
-0.0751567
1.47081
-0.0976008
1.2374
-0.119664
1.04267
-0.134558
0.873287
-0.112785
0.683416
0.35843
0.0910929
0.267559
0.122927
0.651768
0.11775
0.87863
0.100424
1.06019
0.0821212
1.25588
0.0634515
1.48962
0.0447796
1.77004
0.0274656
2.10749
0.0126967
2.51518
-0.00104592
3.00928
-0.0148272
3.00931
-0.0295215
2.51489
-0.0466605
2.10716
-0.0649876
1.7696
-0.083307
1.48913
-0.101367
1.25546
-0.11853
1.05984
-0.123488
0.878244
-0.0913563
0.651284
0.267074
0.0602964
0.207263
0.0994465
0.612618
0.100305
0.877771
0.0881123
1.07238
0.0732531
1.27074
0.0599684
1.50291
0.0460571
1.78395
0.0310519
2.1225
0.0154642
2.53077
-0.00172046
3.02646
-0.0185833
3.02617
-0.0337565
2.53006
-0.0482625
2.12167
-0.061801
1.78314
-0.0748019
1.50213
-0.0893929
1.27005
-0.101313
1.07176
-0.100136
0.877067
-0.0605793
0.611727
0.206494
0.033129
0.174134
0.0723886
0.573358
0.0820488
0.868111
0.0753591
1.07907
0.0632972
1.28281
0.051513
1.51469
0.039903
1.79556
0.0277869
2.13461
0.0142213
2.54433
-0.00226329
3.04295
-0.018402
3.04231
-0.0313847
2.54304
-0.0430779
2.13336
-0.0543399
1.7944
-0.0656658
1.51346
-0.0773332
1.28172
-0.0835614
1.07799
-0.0733951
0.866901
-0.0334826
0.571815
0.173012
0.0145445
0.159589
0.0443505
0.543552
0.0575382
0.854923
0.0570077
1.0796
0.0504064
1.28941
0.041467
1.52363
0.032204
1.80482
0.022291
2.14452
0.0107103
2.55591
-0.00294161
3.0566
-0.0164478
3.05582
-0.0276176
2.55421
-0.0367767
2.14252
-0.0452215
1.80284
-0.0535214
1.52176
-0.0594619
1.28766
-0.059324
1.07785
-0.0454386
0.853016
-0.0149609
0.541337
0.158051
0.00384413
0.155745
0.0215856
0.525811
0.0332687
0.84324
0.0369603
1.07591
0.0365701
1.2898
0.0329711
1.52723
0.0271644
1.81063
0.0188759
2.15281
0.00840232
2.56639
-0.00363603
3.06864
-0.0154734
3.06765
-0.025307
2.56405
-0.0325782
2.14979
-0.0371557
1.80742
-0.0398489
1.52445
-0.0394556
1.28727
-0.035071
1.07346
-0.022625
0.84057
-0.00427208
0.522984
0.153779
-0.00116906
0.156914
0.00638536
0.518256
0.0147408
0.834885
0.0203963
1.07025
0.024007
1.28619
0.0244842
1.52675
0.0216151
1.8135
0.0155184
2.15891
0.00647785
2.57543
-0.00464402
3.07976
-0.0152551
3.07826
-0.0233036
2.5721
-0.0280415
2.15453
-0.0298397
1.80922
-0.0283257
1.52294
-0.023737
1.28268
-0.017181
1.06691
-0.00788994
0.831279
0.000639326
0.514455
0.154418
-0.00179272
0.158707
0.000750608
0.515713
0.00641959
0.829216
0.0122192
1.06445
0.0167543
1.28165
0.0184406
1.52507
0.0169422
1.815
0.0123029
2.16355
0.00449558
2.58323
-0.00583095
3.09009
-0.0156862
3.08812
-0.0226419
2.57905
-0.0262481
2.15813
-0.0263812
1.80935
-0.0230326
1.51959
-0.0170487
1.2767
-0.00987058
1.05973
-0.00276469
0.824173
0.00103517
0.510655
0.155453
-0.000660355
0.159367
0.000430141
0.514622
0.00469482
0.824951
0.00992335
1.05922
0.013866
1.27771
0.0149057
1.52403
0.0131092
1.8168
0.00858704
2.16807
0.00146244
2.59036
-0.00777529
3.09932
-0.0164929
3.09684
-0.0219156
2.58447
-0.0245821
2.1608
-0.0242803
1.80905
-0.0214327
1.51674
-0.0157411
1.271
-0.00883476
1.05282
-0.00288622
0.818224
-0.000171569
0.507941
0.155282
-0.000393833
0.159761
-0.000164274
0.514393
0.00310377
0.821683
0.00757679
1.05475
0.011009
1.27428
0.0118499
1.52319
0.00984029
1.81881
0.00522578
2.17269
-0.00160712
2.59719
-0.00995529
3.10767
-0.0174481
3.10433
-0.0217153
2.58874
-0.0235801
2.16266
-0.0230956
1.80857
-0.0199515
1.5136
-0.014357
1.26541
-0.00793285
1.0464
-0.0029299
0.813221
-0.000697392
0.505708
0.154584
-0.000895528
0.160657
-0.00146381
0.514961
9.94819e-05
0.82012
0.00330066
1.05155
0.00591242
1.27166
0.00669674
1.5224
0.00511734
1.82038
0.00113852
2.17666
-0.00494539
2.60328
-0.0122917
3.11502
-0.0184197
3.11046
-0.0219765
2.5923
-0.0226379
2.16333
-0.0211393
1.80707
-0.0172519
1.50971
-0.0118778
1.26003
-0.00622988
1.04075
-0.00219596
0.809187
-0.000530339
0.504042
0.154054
-0.00123792
0.161895
-0.00263959
0.516363
-0.00259802
0.820078
-0.00107973
1.05003
0.000354873
1.27023
0.000616056
1.52214
-0.0009014
1.8219
-0.00427165
2.18004
-0.00926241
2.60827
-0.0152813
3.12104
-0.0198407
3.11502
-0.0218853
2.59434
-0.0213141
2.16275
-0.0188808
1.80463
-0.0149503
1.50578
-0.0101806
1.25527
-0.00548448
1.03605
-0.00215121
0.805854
-0.00058645
0.502478
0.153467
-0.0012943
0.163189
-0.00323025
0.518299
-0.00385545
0.820703
-0.00377707
1.04995
-0.00379278
1.27025
-0.00467462
1.52302
-0.00675345
1.82398
-0.0101146
2.1834
-0.0145152
2.61267
-0.0193077
3.12583
-0.0224154
3.11812
-0.022806
2.59473
-0.0212404
2.16119
-0.0180835
1.80148
-0.0141648
1.50186
-0.00992316
1.25102
-0.00595035
1.03208
-0.00290971
0.802813
-0.000981103
0.500549
0.152486
-0.00151507
0.164704
-0.00391886
0.520702
-0.00551962
0.822304
-0.00668337
1.05112
-0.00805242
1.27162
-0.0100184
1.52499
-0.0127685
1.82673
-0.016339
2.18697
-0.0204125
2.61674
-0.0241269
3.12954
-0.0257037
3.1197
-0.0246989
2.59373
-0.0223401
2.15883
-0.0187927
1.79793
-0.0147886
1.49786
-0.0107221
1.24696
-0.00696769
1.02833
-0.00381096
0.799657
-0.00137045
0.498109
0.151116
-0.00186145
0.166565
-0.00487465
0.523716
-0.00737895
0.824808
-0.00949889
1.05324
-0.0120344
1.27415
-0.015205
1.52816
-0.0190155
1.83054
-0.0232654
2.19122
-0.027453
2.62093
-0.0304573
3.13255
-0.0306548
3.1199
-0.028449
2.59152
-0.0248386
2.15522
-0.0205109
1.7936
-0.0160263
1.49337
-0.0117606
1.24269
-0.00792131
1.02449
-0.00452096
0.796256
-0.0016306
0.495218
0.149485
-0.00260039
0.169166
-0.00675182
0.527867
-0.0105731
0.82863
-0.0140783
1.05674
-0.0177512
1.27782
-0.0218842
1.53229
-0.0264642
1.83512
-0.0312638
2.19602
-0.0355956
2.62526
-0.0380808
3.13503
-0.0370846
3.1189
-0.0336471
2.58809
-0.0288983
2.15047
-0.0237904
1.78849
-0.0187868
1.48837
-0.0141185
1.23802
-0.00980652
1.02018
-0.00571742
0.792167
-0.00206668
0.491568
0.147419
-0.00313914
0.172305
-0.00814673
0.532875
-0.0127852
0.833268
-0.0173926
1.06135
-0.0226483
1.28308
-0.0285749
1.53822
-0.0349121
1.84146
-0.0410845
2.20219
-0.0461331
2.63031
-0.04837
3.13727
-0.0461683
3.1167
-0.0411771
2.58309
-0.0349076
2.1442
-0.0283707
1.78196
-0.0221417
1.48214
-0.0165054
1.23239
-0.0114656
1.01514
-0.00676244
0.787464
-0.00246533
0.48727
0.144953
-0.00438147
0.176686
-0.0113859
0.539879
-0.0178711
0.839753
-0.0240135
1.06749
-0.0305013
1.28957
-0.0376368
1.54535
-0.0452219
1.84904
-0.0526181
2.20958
-0.0584377
2.63613
-0.0605341
3.13937
-0.0571651
3.11333
-0.0505536
2.57648
-0.0427353
2.13638
-0.0349274
1.77415
-0.0277014
1.47491
-0.0211811
1.22587
-0.0150906
1.00905
-0.0089608
0.781334
-0.0032263
0.481536
0.141727
-0.0053063
0.181993
-0.0135382
0.548111
-0.0214981
0.847713
-0.0296031
1.0756
-0.0387417
1.29871
-0.0485858
1.5552
-0.0586751
1.85913
-0.0679285
2.21884
-0.0747387
2.64294
-0.0765382
3.14117
-0.0716367
3.10843
-0.062978
2.56782
-0.0529605
2.12637
-0.0429104
1.7641
-0.0335283
1.46553
-0.0250915
1.21743
-0.0175088
1.00146
-0.0103568
0.774182
-0.00378071
0.47496
0.137946
-0.00761287
0.189606
-0.0193579
0.559856
-0.0299343
0.85829
-0.0399611
1.08562
-0.0508106
1.30956
-0.062767
1.56715
-0.0751107
1.87148
-0.0864577
2.23019
-0.0944555
2.65094
-0.095919
3.14263
-0.0892159
3.10173
-0.0781307
2.55674
-0.0656368
2.11387
-0.0534205
1.75188
-0.0422683
1.45438
-0.0323708
1.20753
-0.0231652
0.992257
-0.0138018
0.764819
-0.00491767
0.466076
0.133029
-0.00937455
0.19898
-0.0234328
0.573914
-0.0370712
0.871928
-0.0508128
1.09936
-0.0661051
1.32485
-0.0820007
1.58305
-0.0976001
1.88708
-0.111142
2.24373
-0.119926
2.65972
-0.120421
3.14312
-0.111189
3.09249
-0.0971185
2.54267
-0.0815721
2.09833
-0.0662708
1.73658
-0.0520361
1.44014
-0.039085
1.19458
-0.0272579
0.98043
-0.0159627
0.753524
-0.00573666
0.45585
0.127292
-0.0145068
0.213487
-0.0349863
0.594394
-0.0526895
0.889631
-0.0696512
1.11633
-0.0879881
1.34318
-0.107406
1.60247
-0.12626
1.90593
-0.141857
2.25932
-0.151075
2.66894
-0.149956
3.14201
-0.137557
3.0801
-0.119838
2.52495
-0.100593
2.07908
-0.0818566
1.71784
-0.0647362
1.42302
-0.049613
1.17946
-0.0355629
0.96638
-0.0212135
0.739174
-0.0074822
0.442118
0.11981
-0.0181264
0.231613
-0.0439199
0.620187
-0.06858
0.914291
-0.092681
1.14043
-0.117933
1.36844
-0.142522
1.62706
-0.164703
1.92811
-0.181942
2.27656
-0.190705
2.6777
-0.186861
3.13816
-0.170281
3.06352
-0.148328
2.503
-0.125095
2.05585
-0.102568
1.69532
-0.0813768
1.40183
-0.061542
1.15962
-0.0428996
0.947738
-0.0248668
0.721141
-0.0084446
0.425696
0.111365
-0.0335395
0.265153
-0.0708562
0.657504
-0.101951
0.945386
-0.131916
1.17039
-0.161823
1.39834
-0.19026
1.65549
-0.214596
1.95245
-0.231678
2.29365
-0.237974
2.684
-0.229738
3.12993
-0.207771
3.04155
-0.180686
2.47591
-0.152562
2.02772
-0.125427
1.66818
-0.100606
1.37701
-0.0782001
1.13722
-0.0565755
0.926113
-0.0340258
0.698592
-0.0112115
0.402882
0.100154
-0.0455453
0.310698
-0.105324
0.717283
-0.150457
0.990519
-0.189369
1.2093
-0.224763
1.43374
-0.255447
1.68618
-0.279496
1.9765
-0.29379
2.30794
-0.295448
2.68566
-0.280881
3.11536
-0.252515
3.01318
-0.220208
2.44361
-0.187734
1.99525
-0.156708
1.63716
-0.127548
1.34785
-0.100212
1.10988
-0.0729418
0.898842
-0.0415773
0.667227
-0.0126354
0.37394
0.0875183
-0.0285154
0.339213
-0.077131
0.765899
-0.12252
1.03591
-0.16638
1.25316
-0.207956
1.47531
-0.247529
1.72575
-0.282699
2.01167
-0.311273
2.33651
-0.3294
2.70378
-0.329909
3.11587
-0.309451
2.99272
-0.276258
2.41041
-0.236236
1.95523
-0.193292
1.59421
-0.149769
1.30433
-0.106703
1.06682
-0.0654922
0.857632
-0.0298691
0.631604
-0.00638084
0.350452
0.0811374
-0.00206158
0.341275
-0.0268798
0.790717
-0.0611487
1.07018
-0.0994201
1.29144
-0.137007
1.5129
-0.172558
1.7613
-0.204451
2.04356
-0.230111
2.36217
-0.244962
2.71864
-0.242648
3.11355
-0.220633
2.97071
-0.187634
2.37741
-0.149696
1.91729
-0.110581
1.5551
-0.0730889
1.26683
-0.0389539
1.03268
-0.00933926
0.828017
0.00822
0.614045
0.00787774
0.350794
0.0890152
0.00383135
0.337444
-0.00982693
0.804375
-0.0345484
1.0949
-0.063724
1.32061
-0.0942876
1.54346
-0.124493
1.79151
-0.152422
2.07149
-0.174957
2.38471
-0.187552
2.73123
-0.184791
3.11079
-0.164927
2.95085
-0.136617
2.3491
-0.105563
1.88624
-0.0748896
1.52443
-0.0461608
1.23811
-0.0209861
1.00751
-0.00172113
0.808752
0.00840187
0.603922
0.00658441
0.352611
0.0955996
0.00592971
0.331514
-0.00364269
0.813948
-0.0230477
1.1143
-0.0462276
1.34379
-0.0701878
1.56742
-0.0952839
1.8166
-0.11929
2.09549
-0.138984
2.4044
-0.150365
2.74261
-0.148594
3.10902
-0.132024
2.93428
-0.10855
2.32563
-0.0834156
1.8611
-0.0591681
1.50018
-0.0367088
1.21565
-0.0169692
0.987766
-0.00173022
0.793513
0.00499189
0.5972
0.00359483
0.354008
0.0991944
0.00756852
0.323945
0.000931696
0.820584
-0.0166386
1.13187
-0.0361431
1.3633
-0.0566465
1.58793
-0.0782115
1.83817
-0.0991115
2.11639
-0.116575
2.42186
-0.127211
2.75325
-0.126285
3.10809
-0.112431
2.92042
-0.0929128
2.30611
-0.0718592
1.84005
-0.051554
1.47987
-0.0332604
1.19735
-0.0176975
0.972203
-0.00620847
0.782024
0.000233213
0.590758
0.000563491
0.353678
0.0997579
0.00668931
0.317256
0.00238918
0.824885
-0.0127043
1.14697
-0.0306255
1.38122
-0.0493898
1.60669
-0.0686128
1.85739
-0.0872728
2.13505
-0.103101
2.43769
-0.113244
2.76339
-0.113117
3.10797
-0.101023
2.90833
-0.0832151
2.2883
-0.0645177
1.82135
-0.0471735
1.46253
-0.0319334
1.18211
-0.0191221
0.959392
-0.00970835
0.77261
-0.00362162
0.584671
-0.000742266
0.350799
0.0990156
0.0046245
0.312632
0.00192801
0.827581
-0.011296
1.16019
-0.0277548
1.39768
-0.0453762
1.62431
-0.063241
1.87526
-0.0804597
2.15227
-0.0953514
2.45258
-0.105514
2.77355
-0.106405
3.10886
-0.0962394
2.89816
-0.0809038
2.27297
-0.0639391
1.80439
-0.0478033
1.44639
-0.0337412
1.16805
-0.0219514
0.947602
-0.0126983
0.763357
-0.00596571
0.577939
-0.00165049
0.346484
0.0973651
0.0022249
0.310407
-8.47604e-05
0.829891
-0.0117618
1.17187
-0.0265247
1.41244
-0.0430139
1.6408
-0.0600553
1.8923
-0.0765805
2.1688
-0.0912041
2.46721
-0.101628
2.78398
-0.103449
3.11068
-0.0941102
2.88882
-0.0790786
2.25794
-0.0634712
1.78878
-0.0485612
1.43148
-0.0354206
1.15491
-0.0241602
0.936342
-0.014753
0.75395
-0.00734631
0.570532
-0.00216326
0.341301
0.0952019
9.05336e-05
0.310316
-0.00331192
0.833293
-0.0133833
1.18194
-0.0264256
1.42548
-0.0416874
1.65606
-0.0580215
1.90863
-0.0742556
2.18503
-0.0891872
2.48214
-0.100573
2.79536
-0.104435
3.11454
-0.0974733
2.88186
-0.0840126
2.24448
-0.0679263
1.77269
-0.0528745
1.41643
-0.0390683
1.1411
-0.027026
0.9243
-0.0173359
0.74426
-0.00927755
0.562474
-0.00288087
0.334904
0.092321
-0.00122965
0.311546
-0.00606942
0.838133
-0.0153292
1.1912
-0.0272123
1.43736
-0.0413237
1.67018
-0.0569122
1.92422
-0.0729738
2.20109
-0.0885462
2.49771
-0.101176
2.80799
-0.106672
3.12004
-0.100863
2.87605
-0.0880957
2.23171
-0.0729091
1.75751
-0.0567389
1.40026
-0.0425989
1.12696
-0.0306473
0.912348
-0.0195125
0.733125
-0.0103447
0.553306
-0.00341926
0.327978
0.0889018
-0.00307424
0.31462
-0.00789038
0.842949
-0.0167889
1.2001
-0.0281004
1.44868
-0.0414887
1.68356
-0.056453
1.93918
-0.0723476
2.21699
-0.0884213
2.51378
-0.102119
2.82169
-0.110049
3.12797
-0.106686
2.87269
-0.0942942
2.21932
-0.078311
1.74152
-0.0630374
1.38499
-0.0482316
1.11216
-0.0344144
0.898531
-0.0231289
0.72184
-0.0128229
0.543
-0.00421438
0.31937
0.0846874
-0.00402397
0.318644
-0.0091368
0.848062
-0.0177267
1.20869
-0.0287054
1.45965
-0.0416623
1.69652
-0.0561815
1.9537
-0.071962
2.23277
-0.0885323
2.53036
-0.103815
2.83697
-0.114145
3.1383
-0.113437
2.87198
-0.103459
2.20934
-0.0874907
1.72555
-0.069184
1.36668
-0.0521875
1.09516
-0.0379019
0.884245
-0.0249831
0.708921
-0.0136821
0.531699
-0.00474151
0.310429
0.0799459
-0.00420614
0.32285
-0.00979658
0.853652
-0.0181563
1.21705
-0.0288281
1.47033
-0.0414922
1.70918
-0.0557597
1.96797
-0.0716088
2.24862
-0.0887639
2.54751
-0.105457
2.85367
-0.118399
3.15124
-0.120646
2.87423
-0.111112
2.1998
-0.0949253
1.70937
-0.0766633
1.34842
-0.0598386
1.07834
-0.0446293
0.869036
-0.0302224
0.694514
-0.0165584
0.518035
-0.00549822
0.299369
0.0744476
-0.00411946
0.32697
-0.0101053
0.859638
-0.018265
1.22521
-0.0285993
1.48066
-0.0409374
1.72152
-0.0550024
1.98204
-0.0709703
2.26459
-0.088594
2.56513
-0.106512
2.87159
-0.122081
3.16681
-0.12717
2.87932
-0.120806
2.19344
-0.106729
1.69529
-0.0872458
1.32894
-0.0657455
1.05684
-0.0455803
0.848871
-0.02978
0.678714
-0.0169333
0.505188
-0.005836
0.288272
0.0686116
-0.00402165
0.330991
-0.0101806
0.865797
-0.018128
1.23315
-0.0281113
1.49064
-0.0401001
1.73351
-0.0539444
1.99588
-0.0699553
2.2806
-0.0880093
2.58319
-0.107318
2.89089
-0.125526
3.18502
-0.13421
2.888
-0.12931
2.18854
-0.114041
1.68002
-0.0948166
1.30971
-0.0729163
1.03494
-0.0549345
0.830889
-0.0384695
0.662248
-0.0205945
0.487313
-0.00632474
0.274002
0.0622869
-0.0039114
0.334903
-0.010065
0.871951
-0.0177758
1.24087
-0.0273848
1.50025
-0.0389925
1.74512
-0.0525543
2.00944
-0.068558
2.2966
-0.0870106
2.60164
-0.107503
2.91139
-0.127626
3.20514
-0.1393
2.89967
-0.138475
2.18772
-0.127969
1.66952
-0.106404
1.28815
-0.0828282
1.01136
-0.0559939
0.804054
-0.0330716
0.639326
-0.0171806
0.471422
-0.00467532
0.261497
0.0576116
-0.00377714
0.33868
-0.0098614
0.878035
-0.0172911
1.2483
-0.0265147
1.50948
-0.0377267
1.75633
-0.0509638
2.02268
-0.0668338
2.31247
-0.0854452
2.62025
-0.106781
2.93272
-0.129721
3.22808
-0.146481
2.91643
-0.150246
2.19148
-0.138982
1.65825
-0.120305
1.26947
-0.0938393
0.984894
-0.0660669
0.776282
-0.0404663
0.613726
-0.0188627
0.449819
-0.00379582
0.24643
0.0538158
-0.00358233
0.342262
-0.00945836
0.883911
-0.016596
1.25543
-0.0254367
1.51832
-0.0362298
1.76712
-0.0490957
2.03555
-0.0647401
2.32812
-0.0834427
2.63895
-0.105524
2.9548
-0.130221
3.25278
-0.148996
2.93521
-0.155691
2.19818
-0.152733
1.6553
-0.136003
1.25274
-0.1067
0.95559
-0.0678234
0.737406
-0.0281715
0.574074
0.000797581
0.42085
0.0132408
0.233987
0.0670566
-0.00332851
0.345591
-0.00904436
0.889627
-0.0158589
1.26225
-0.0242931
1.52675
-0.0346424
1.77747
-0.0470943
2.048
-0.0624153
2.34344
-0.0810655
2.6576
-0.103707
2.97744
-0.130158
3.27923
-0.153053
2.9581
-0.164406
2.20953
-0.161184
1.65207
-0.146916
1.23847
-0.120633
0.929307
-0.0848483
0.701621
-0.0339658
0.523191
0.0114902
0.375393
0.0111272
0.23435
0.0781837
-0.00306237
0.348653
-0.00846148
0.895026
-0.0149619
1.26875
-0.0229798
1.53477
-0.0329078
1.7874
-0.0449236
2.06001
-0.0598934
2.35841
-0.0783855
2.6761
-0.101403
3.00046
-0.129199
3.30702
-0.154294
2.9832
-0.170502
2.22574
-0.177208
1.65878
-0.167993
1.22926
-0.14627
0.907583
-0.097982
0.653334
-0.00899671
0.434206
0.10384
0.262557
0.147982
0.190208
0.226166
-0.00292231
0.351575
-0.00812635
0.90023
-0.014464
1.27509
-0.022366
1.54267
-0.0323121
1.79735
-0.0445611
2.07226
-0.0601399
2.37399
-0.0799108
2.69587
-0.105285
3.02584
-0.137323
3.33906
-0.169097
3.01497
-0.193586
2.25023
-0.202474
1.66767
-0.198514
1.2253
-0.181813
0.890882
-0.163725
0.635246
-0.184616
0.455096
-0.377744
0.455685
-0.896556
0.70902
0.881034
-1.55142
-0.00271773
0.354293
-0.00759316
0.905106
-0.0136801
1.28117
-0.021339
1.55033
-0.0310645
1.80707
-0.0432369
2.08443
-0.0589873
2.38974
-0.0794262
2.71631
-0.106278
3.05269
-0.14164
3.37442
-0.178318
3.05165
-0.207934
2.27984
-0.237481
1.69722
-0.257033
1.24485
-0.272056
0.905905
-0.34538
0.70857
-0.67415
0.783866
-1.35746
1.13899
-1.97647
1.32803
1.22558
-2.32102
-0.00248193
0.356775
-0.00709423
0.909718
-0.0129012
1.28698
-0.0202858
1.55771
-0.0297569
1.81654
-0.0418029
2.09648
-0.0576218
2.40555
-0.0785308
2.73722
-0.106904
3.08106
-0.146019
3.41354
-0.190581
3.09621
-0.232042
2.3213
-0.263431
1.72861
-0.284301
1.26572
-0.371082
0.992685
-0.720172
1.05766
-1.45686
1.52056
-2.0578
1.73993
-2.31028
1.58051
1.34711
-2.4318
-0.00218418
0.358959
-0.0064484
0.913982
-0.0119573
1.29249
-0.0190687
1.56483
-0.0282438
1.82572
-0.0401173
2.10835
-0.0559439
2.42138
-0.0773599
2.75863
-0.107032
3.11073
-0.148648
3.45515
-0.198037
3.1456
-0.242158
2.36542
-0.296071
1.78252
-0.392051
1.3617
-0.683703
1.28434
-1.36859
1.74255
-1.98207
2.13403
-2.23479
1.99265
-2.35578
1.70149
1.41664
-2.42531
-0.0019214
0.360881
-0.00582986
0.91789
-0.0110111
1.29767
-0.0177888
1.5716
-0.0266851
1.83462
-0.0383425
2.12001
-0.0541006
2.43714
-0.075816
2.78035
-0.106647
3.14156
-0.151399
3.49991
-0.207439
3.20164
-0.266984
2.42497
-0.326648
1.84218
-0.486242
1.52129
-1.01753
1.81562
-1.71783
2.44286
-2.07166
2.48787
-2.23378
2.15477
-2.32368
1.79139
1.48656
-2.3936
-0.00172207
0.362603
-0.00540692
0.921575
-0.0105312
1.30279
-0.0172175
1.57829
-0.0261517
1.84355
-0.037847
2.13171
-0.0537826
2.45307
-0.0760059
2.80257
-0.108132
3.17369
-0.155537
3.54731
-0.217174
3.26328
-0.277745
2.48554
-0.374124
1.93856
-0.716892
1.86406
-1.40942
2.50815
-1.92163
2.95506
-2.13831
2.70455
-2.25408
2.27055
-2.33558
1.87289
1.55429
-2.4033
-0.00161786
0.36422
-0.00538968
0.925347
-0.0106808
1.30808
-0.0176061
1.58522
-0.0268128
1.85276
-0.0388645
2.14376
-0.0553047
2.46952
-0.0783887
2.82565
-0.11209
3.20739
-0.162889
3.59811
-0.228898
3.32929
-0.303984
2.56062
-0.473915
2.10849
-0.952549
2.34269
-1.5953
3.1509
-1.91564
3.27541
-2.07756
2.86647
-2.20061
2.3936
-2.29884
1.97111
1.6234
-2.36796
-0.00140168
0.365622
-0.00520237
0.929148
-0.0106955
1.31358
-0.0179172
1.59244
-0.0273785
1.86222
-0.0397736
2.15615
-0.0566861
2.48643
-0.0805023
2.84947
-0.11557
3.24246
-0.168763
3.65131
-0.239735
3.40026
-0.330832
2.65172
-0.576323
2.35399
-1.1648
2.93117
-1.69403
3.68013
-1.91618
3.49755
-2.07224
3.02253
-2.2174
2.53875
-2.34629
2.1
1.69264
-2.41553
-0.00118376
0.366806
-0.0050559
0.93302
-0.0107074
1.31923
-0.0182154
1.59994
-0.0279265
1.87193
-0.0406147
2.16884
-0.0579453
2.50376
-0.0824695
2.87399
-0.118795
3.27878
-0.174954
3.70746
-0.248603
3.47391
-0.363001
2.76612
-0.686374
2.67736
-1.29131
3.53611
-1.69841
4.08722
-1.89997
3.69911
-2.0275
3.15006
-2.14272
2.65397
-2.22799
2.18528
1.69137
-2.22671
-0.000855509
0.367661
-0.00463954
0.936804
-0.0104796
1.32507
-0.0183014
1.60777
-0.0282246
1.88185
-0.0411938
2.18181
-0.0589556
2.52152
-0.0841371
2.89918
-0.121523
3.31617
-0.17973
3.76567
-0.258819
3.553
-0.407434
2.91473
-0.796362
3.06629
-1.35413
4.09388
-1.65941
4.3925
-1.85191
3.89161
-1.97045
3.2686
-1.98802
2.67155
-1.95421
2.15146
1.70622
-1.96906
-0.000550472
0.368212
-0.00426055
0.940514
-0.0101456
1.33095
-0.0182037
1.61582
-0.0281523
1.8918
-0.0410923
2.19475
-0.0587715
2.5392
-0.0837629
2.92417
-0.12087
3.35328
-0.178982
3.82378
-0.259769
3.63378
-0.427332
3.0823
-0.836724
3.47568
-1.31072
4.56787
-1.52755
4.60933
-1.62533
3.9894
-1.6594
3.30267
-1.53608
2.54823
-1.06038
1.67576
0.645839
-9.12166e-05
0.368303
-0.00335361
0.943776
-0.0094399
1.33704
-0.0178087
1.62419
-0.0279859
1.90198
-0.0414628
2.20823
-0.0600251
2.55776
-0.0865472
2.95069
-0.126114
3.39284
-0.189548
3.88722
-0.283504
3.72774
-0.487325
3.28612
-0.949525
3.93788
-1.36434
4.98269
-1.49889
4.74387
-1.51965
4.01016
-1.44737
3.23039
-1.24193
2.34279
-0.693297
1.12713
-0.0474582
0.000531582
0.367772
-0.00220799
0.946516
-0.00836953
1.3432
-0.0169354
1.63276
-0.0271814
1.91222
-0.0410579
2.2221
-0.0603531
2.57706
-0.0880975
2.97843
-0.130188
3.43493
-0.197011
3.95404
-0.298533
3.82926
-0.53629
3.52387
-1.02809
4.42968
-1.3669
5.3215
-1.45948
4.83645
-1.46559
4.01627
-1.31162
3.07641
-0.859881
1.89105
-0.149207
0.416458
-0.196665
0.00139677
0.366375
-0.00044627
0.948359
-0.00688807
1.34964
-0.0152991
1.64117
-0.0253969
1.92232
-0.0394269
2.23613
-0.0589354
2.59657
-0.0875102
3.00701
-0.131706
3.47913
-0.204028
4.02636
-0.320702
3.94594
-0.593324
3.7965
-1.08958
4.92593
-1.33621
5.56813
-1.39236
4.8926
-1.35466
3.97857
-1.09296
2.81471
-0.423333
1.22143
0.0205768
-0.0274527
-0.176088
0.00217817
0.364197
0.00120053
0.949337
-0.00474171
1.35559
-0.0126953
1.64912
-0.0225681
1.93219
-0.0366079
2.25017
-0.0556815
2.61564
-0.084536
3.03586
-0.129982
3.52457
-0.206898
4.10328
-0.337329
4.07637
-0.626355
4.08552
-1.10101
5.40059
-1.28122
5.74834
-1.31479
4.92616
-1.19965
3.86344
-0.829975
2.44504
-0.164378
0.55583
0.0170886
-0.208919
-0.159
0.00316651
0.36103
0.00301022
0.949493
-0.00202889
1.36063
-0.00880471
1.6559
-0.018142
1.94153
-0.0315021
2.26353
-0.04977
2.63391
-0.0783376
3.06443
-0.124481
3.57072
-0.20187
4.18067
-0.351711
4.22621
-0.660461
4.39427
-1.07631
5.81644
-1.1928
5.86483
-1.20547
4.93884
-1.00758
3.66554
-0.492709
1.93017
-0.0135433
0.0766639
0.018502
-0.240964
-0.140498
0.00430754
0.356723
0.00558879
0.948212
0.00209861
1.36412
-0.00331561
1.66131
-0.0121369
1.95035
-0.0236172
2.27502
-0.0397715
2.65006
-0.0667023
3.09136
-0.111206
3.61522
-0.188262
4.25772
-0.342261
4.38021
-0.651339
4.70335
-0.994544
6.15964
-1.08019
5.95048
-1.07382
4.93246
-0.839781
3.4315
-0.286978
1.37737
-0.0470248
-0.163289
-0.0155556
-0.272433
-0.156053
0.0058868
0.350836
0.00908952
0.945009
0.00766929
1.36554
0.00359062
1.66539
-0.00345958
1.9574
-0.0115741
2.28313
-0.0250324
2.66352
-0.0494474
3.11578
-0.0907656
3.65654
-0.174964
4.34192
-0.338952
4.5442
-0.601846
4.96624
-0.844244
6.40204
-0.897188
6.00342
-0.867571
4.90285
-0.665792
3.22972
-0.177118
0.888691
-0.088901
-0.251506
-0.035674
-0.325661
-0.191727
0.00739483
0.343441
0.0128057
0.939598
0.0135033
1.36484
0.0117091
1.66719
0.0086573
1.96046
0.00403094
2.28776
-0.00605073
2.6736
-0.0265976
3.13632
-0.0689793
3.69892
-0.1674
4.44034
-0.332586
4.70938
-0.53545
5.16911
-0.692285
6.55888
-0.732261
6.0434
-0.726718
4.8973
-0.588305
3.09131
-0.297657
0.598043
-0.227349
-0.321814
-0.108805
-0.444205
-0.300532
0.00937447
0.334066
0.0177874
0.931185
0.0216422
1.36098
0.024176
1.66465
0.0251857
1.95945
0.0260102
2.28693
0.0234663
2.67614
0.0104667
3.14932
-0.0294235
3.73881
-0.131668
4.54259
-0.255181
4.8329
-0.35643
5.27036
-0.427696
6.63014
-0.464514
6.08022
-0.467991
4.90078
-0.410093
3.03341
-0.45614
0.64409
-0.372769
-0.405185
-0.186462
-0.630512
-0.486994
0.0109357
0.323131
0.0222927
0.919828
0.0302062
1.35307
0.0374691
1.65739
0.0444521
1.95246
0.053953
2.27743
0.0643249
2.66577
0.0705135
3.14313
0.0558379
3.75349
-0.0272135
4.62564
-0.125194
4.93088
-0.1609
5.30606
-0.155892
6.62514
-0.10876
6.03309
-0.0695202
4.86154
-0.0765967
3.04049
-0.325065
0.892558
-0.3941
-0.33615
-0.19811
-0.826502
-0.685104
0.0130549
0.310076
0.0282769
0.904606
0.041435
1.33991
0.0550188
1.64381
0.0701364
1.93734
0.090467
2.2571
0.116944
2.6393
0.150137
3.10994
0.190182
3.71344
0.19655
4.61927
0.0854348
5.04199
0.10277
5.28873
0.311598
6.41631
0.518845
5.82584
0.766308
4.61408
0.707089
3.09971
0.304589
1.29506
0.0134082
-0.0449687
-0.0500768
-0.763017
-0.735181
0.0141402
0.295936
0.0322988
0.886448
0.0506726
1.32154
0.0712955
1.62318
0.0959732
1.91267
0.13061
2.22246
0.177651
2.59226
0.249978
3.03762
0.379684
3.58374
0.520086
4.47887
0.437691
5.12439
0.432379
5.29404
0.78407
6.06462
1.02368
5.58624
1.18625
4.4515
1.14042
3.14555
0.805589
1.62989
0.504733
0.255887
0.189091
-0.447375
-0.54609
0.0153819
0.280554
0.0371147
0.864715
0.0612828
1.29737
0.0894839
1.59498
0.125146
1.87701
0.17511
2.1725
0.250036
2.51733
0.382739
2.90491
0.612322
3.35415
0.85839
4.2328
0.900372
5.08241
0.792303
5.40211
1.04747
5.80945
1.22549
5.40822
1.31838
4.35862
1.298
3.16592
1.01052
1.91737
0.645656
0.620746
0.279114
-0.0808324
-0.266976
0.0159064
0.264647
0.0380141
0.842607
0.0661709
1.26921
0.101642
1.55951
0.148178
1.83047
0.213755
2.10692
0.319874
2.41121
0.508002
2.71678
0.794068
3.06809
1.11722
3.90965
1.21473
4.98489
0.999569
5.61727
1.07343
5.73559
1.1763
5.30534
1.23558
4.29934
1.15816
3.24334
0.92319
2.15234
0.627965
0.915972
0.267813
0.279319
0.000837549
0.0193386
0.245309
0.0425926
0.819353
0.0714058
1.2404
0.109377
1.52154
0.161827
1.77802
0.234689
2.03406
0.353363
2.29254
0.550564
2.51958
0.832234
2.78642
1.22462
3.51726
1.36279
4.84671
1.1083
5.87177
1.05409
5.7898
1.06206
5.29737
0.970494
4.3909
0.803641
3.41019
0.702894
2.25309
0.511225
1.10764
0.216513
0.574032
0.21735
0.0219131
0.223396
0.0423895
0.798877
0.0685609
1.21423
0.104269
1.48583
0.15071
1.73158
0.212353
1.97242
0.302754
2.20214
0.435138
2.3872
0.621291
2.60026
0.902419
3.23613
1.098
4.65114
0.922671
6.04709
0.683508
6.02896
0.504089
5.47679
0.376383
4.51861
0.370374
3.4162
0.473313
2.15015
0.336196
1.24476
0.124649
0.785579
0.342
0.0316029
0.191793
0.0527416
0.777738
0.0732909
1.19368
0.0958902
1.46323
0.11866
1.70881
0.142322
1.94875
0.161478
2.18298
0.157994
2.39068
0.127293
2.63097
0.0182951
3.34513
-0.0298329
4.69927
-0.266097
6.28336
-0.427086
6.18995
-0.423717
5.47342
-0.190771
4.28566
0.10235
3.12308
0.257208
1.9953
0.162054
1.33991
0.044378
0.903255
0.386378
0.0515245
0.140268
0.0787234
0.750539
0.0862863
1.18612
0.084753
1.46477
0.0755549
1.71801
0.0480557
1.97625
-0.021504
2.25254
-0.169345
2.53852
-0.432536
2.89416
-0.789685
3.70228
-1.13713
5.04671
-1.24036
6.38659
-1.06397
6.01355
-0.711858
5.12131
-0.247605
3.82141
0.0993042
2.77617
0.165638
1.92896
0.0869641
1.41858
0.0164066
0.973812
0.402784
0.0624026
0.0778656
0.120799
0.692143
0.129946
1.17697
0.109672
1.48504
0.0692764
1.7584
-0.00739488
2.05292
-0.144936
2.39008
-0.387862
2.78145
-0.780278
3.28657
-1.27081
4.19281
-1.56188
5.33778
-1.34971
6.17442
-0.919118
5.58296
-0.374856
4.57705
0.0255074
3.42105
0.222929
2.57875
0.19853
1.95336
0.111358
1.50576
0.0362581
1.04891
0.439042
0.0310247
0.0468409
0.0949345
0.628233
0.106638
1.16527
0.076727
1.51495
0.0197745
1.81535
-0.0739647
2.14666
-0.219713
2.53583
-0.44142
3.00316
-0.757819
3.60297
-1.10093
4.53593
-1.16975
5.4066
-0.851847
5.85652
-0.460769
5.19188
-0.0999337
4.21621
0.0867991
3.23431
0.145615
2.51993
0.116692
1.98228
0.0652549
1.55719
0.0194373
1.09473
0.45848
-0.00618649
0.0530274
0.0144858
0.607561
0.00630197
1.17345
-0.0278787
1.54913
-0.0875945
1.87507
-0.175774
2.23484
-0.305949
2.666
-0.49553
3.19274
-0.762831
3.87027
-1.07193
4.84503
-1.11544
5.4501
-0.773644
5.51473
-0.405604
4.82384
-0.118654
3.92926
0.0117076
3.10395
0.0487525
2.48289
0.0320302
1.99901
0.00582223
1.5834
-0.00603345
1.10659
0.452446
-0.0287951
0.0818225
-0.0406562
0.619422
-0.0560216
1.18882
-0.0907008
1.58381
-0.144369
1.92874
-0.221264
2.31174
-0.328998
2.77374
-0.480293
3.34403
-0.6814
4.07138
-0.908801
5.07243
-0.948778
5.49008
-0.654933
5.22088
-0.355999
4.52491
-0.147909
3.72117
-0.0540126
3.01006
-0.0224273
2.4513
-0.0227495
1.99933
-0.0270929
1.58774
-0.0189181
1.09841
0.433528
-0.0371291
0.118952
-0.062062
0.644355
-0.0818694
1.20862
-0.116446
1.61839
-0.165335
1.97763
-0.231035
2.37744
-0.317475
2.86018
-0.431679
3.45824
-0.572433
4.21213
-0.717102
5.2171
-0.74464
5.51762
-0.534739
5.01098
-0.316459
4.30663
-0.169229
3.57394
-0.0961101
2.93694
-0.062901
2.41809
-0.0500787
1.98651
-0.0423897
1.58006
-0.0272498
1.08327
0.406278
-0.0362875
0.155239
-0.0710982
0.679165
-0.090678
1.2282
-0.117562
1.64527
-0.158657
2.01872
-0.214173