/*--------------------------------*- C++ -*----------------------------------*\
| =========                 |                                                 |
| \\      /  F ield         | OpenFOAM: The Open Source CFD Toolbox           |
|  \\    /   O peration     | Version:  4.0                                   |
|   \\  /    A nd           | Web:      www.OpenFOAM.org                      |
|    \\/     M anipulation  |                                                 |
\*---------------------------------------------------------------------------*/
FoamFile
{
    version     2.0;
    format      ascii;
    class       volScalarField;
    location    "42";
    object      p;
}
// * * * * * * * * * * * * * * * * * * * * * * * * * * * * * * * * * * * * * //

dimensions      [0 2 -2 0 0 0 0];

internalField   nonuniform List<scalar> 
8800
(
0.885757
0.837969
0.799275
0.770275
0.749404
0.734561
0.723948
0.716449
0.711603
0.709509
0.710734
0.714888
0.721505
0.7308
0.743564
0.761286
0.786056
0.819991
0.862536
0.921238
0.717015
0.724693
0.73216
0.735465
0.733956
0.728869
0.722371
0.716276
0.711527
0.708649
0.708328
0.710792
0.715245
0.721164
0.727914
0.73418
0.737811
0.737069
0.731642
0.722946
0.695432
0.701591
0.705714
0.708651
0.710691
0.711282
0.710159
0.708032
0.705984
0.705036
0.70595
0.708289
0.711054
0.713209
0.713797
0.712582
0.710228
0.706826
0.702265
0.698503
0.689651
0.6923
0.695046
0.697441
0.699065
0.700212
0.700934
0.701024
0.700694
0.700595
0.701294
0.702417
0.703217
0.70325
0.702616
0.701506
0.699675
0.697093
0.694683
0.693179
0.684309
0.685732
0.687505
0.689527
0.691299
0.692623
0.693588
0.694354
0.694927
0.695437
0.696025
0.696463
0.696515
0.696189
0.69546
0.694187
0.692471
0.690608
0.689293
0.688461
0.679283
0.680202
0.681437
0.682992
0.68461
0.686115
0.687373
0.688404
0.689319
0.690146
0.690761
0.691018
0.690916
0.690427
0.689506
0.688273
0.686919
0.685639
0.684808
0.684257
0.67444
0.675109
0.676064
0.677355
0.678748
0.680184
0.681592
0.682872
0.684012
0.68504
0.685769
0.686049
0.685889
0.685315
0.684456
0.683465
0.682417
0.681468
0.680872
0.680468
0.669737
0.670253
0.671029
0.672147
0.673406
0.674754
0.676165
0.677588
0.678948
0.680189
0.681082
0.681441
0.681317
0.680846
0.680174
0.679391
0.678569
0.677854
0.677409
0.677094
0.665105
0.665515
0.666164
0.667157
0.668343
0.669641
0.671045
0.672544
0.674085
0.675567
0.676671
0.677187
0.677224
0.676946
0.676472
0.675881
0.675249
0.674715
0.674378
0.674124
0.660465
0.660798
0.661358
0.662272
0.663407
0.664686
0.666117
0.667699
0.669404
0.671146
0.672528
0.673299
0.673577
0.67352
0.673248
0.672855
0.672395
0.67201
0.671756
0.671545
0.655733
0.656008
0.656507
0.657374
0.658488
0.659787
0.661281
0.662986
0.664892
0.666929
0.668666
0.66977
0.670339
0.67053
0.670473
0.670273
0.669982
0.669724
0.669536
0.669356
0.650829
0.651059
0.651519
0.65237
0.653506
0.654868
0.656469
0.658349
0.660521
0.662928
0.665101
0.666604
0.667507
0.667979
0.668156
0.668148
0.668021
0.667875
0.667741
0.667584
0.645674
0.645868
0.646308
0.647172
0.64837
0.649839
0.651602
0.653726
0.656245
0.659125
0.661828
0.663802
0.665088
0.665875
0.666312
0.666504
0.666541
0.6665
0.666412
0.666272
0.640178
0.640342
0.640778
0.641686
0.642987
0.644611
0.646598
0.649043
0.652006
0.655482
0.65883
0.661364
0.663103
0.664251
0.664978
0.665402
0.665604
0.66566
0.665611
0.665483
0.634239
0.634377
0.634823
0.635803
0.637251
0.639088
0.64137
0.644216
0.647723
0.651922
0.656063
0.65929
0.661584
0.663159
0.66422
0.664898
0.665283
0.66544
0.665429
0.66531
0.627739
0.627852
0.628323
0.629402
0.631046
0.633163
0.635829
0.639198
0.643406
0.648506
0.653612
0.657659
0.660601
0.662681
0.664124
0.66509
0.66568
0.665943
0.665968
0.665854
0.62052
0.620612
0.621118
0.62233
0.624223
0.626695
0.62985
0.633882
0.638963
0.645175
0.651456
0.656498
0.660209
0.662884
0.664793
0.666095
0.666915
0.667292
0.667353
0.667242
0.612368
0.612453
0.613013
0.614372
0.616581
0.619513
0.623293
0.628155
0.634328
0.641921
0.649623
0.65585
0.660487
0.663877
0.666344
0.668052
0.669137
0.669639
0.669736
0.669624
0.603
0.603061
0.603699
0.605267
0.607883
0.611397
0.615959
0.621863
0.62938
0.638644
0.648094
0.65577
0.661516
0.665762
0.668903
0.671093
0.672496
0.673141
0.673276
0.673159
0.592044
0.592087
0.592819
0.594686
0.597825
0.602095
0.607678
0.614939
0.624192
0.635557
0.647074
0.656419
0.66346
0.668714
0.67263
0.675406
0.677173
0.677975
0.678147
0.678023
0.578984
0.579009
0.579879
0.582131
0.585957
0.591212
0.59811
0.607083
0.618467
0.63237
0.646403
0.657778
0.666363
0.672817
0.677675
0.681149
0.683345
0.684322
0.684526
0.684387
0.563041
0.563058
0.564134
0.56693
0.571697
0.5783
0.58698
0.598229
0.612369
0.629404
0.646381
0.660049
0.670388
0.678214
0.684164
0.688452
0.691137
0.692298
0.692525
0.692364
0.543034
0.543055
0.544464
0.548099
0.554249
0.562771
0.573913
0.588175
0.605781
0.62659
0.647006
0.663306
0.675634
0.685018
0.692177
0.697384
0.700589
0.701925
0.70216
0.701971
0.517141
0.517191
0.519187
0.52421
0.532549
0.543931
0.558567
0.576855
0.598824
0.624129
0.648456
0.66767
0.682161
0.69325
0.701733
0.707938
0.711659
0.713139
0.713361
0.713138
0.482331
0.482496
0.485711
0.493339
0.505433
0.52123
0.540881
0.564483
0.59182
0.622331
0.650981
0.673305
0.69009
0.702968
0.712862
0.720052
0.724216
0.72577
0.725952
0.725694
0.432863
0.433863
0.440334
0.453315
0.471945
0.494573
0.52114
0.551458
0.585131
0.621459
0.654724
0.680282
0.699402
0.714102
0.725455
0.733556
0.738032
0.739564
0.739676
0.739382
0.359781
0.367093
0.382156
0.405176
0.433524
0.465296
0.500339
0.538443
0.579205
0.621924
0.660227
0.689345
0.711106
0.727883
0.740896
0.749963
0.754796
0.756365
0.756465
0.756213
0.280961
0.298186
0.322613
0.356277
0.394784
0.435875
0.479518
0.525661
0.573995
0.623917
0.668352
0.702097
0.727372
0.746936
0.762153
0.772547
0.777729
0.779248
0.77939
0.779291
0.215443
0.235709
0.267942
0.310521
0.357969
0.407859
0.459832
0.513848
0.569597
0.626505
0.67679
0.714862
0.7434
0.765498
0.782557
0.793703
0.799053
0.800908
0.801116
0.801116
0.161784
0.183745
0.221447
0.270435
0.324913
0.38218
0.44151
0.502747
0.565457
0.629003
0.684803
0.726884
0.758332
0.782588
0.801104
0.813388
0.819639
0.821313
0.821551
0.821583
0.117021
0.140141
0.181588
0.235632
0.295805
0.359141
0.424771
0.4924
0.561449
0.631145
0.692083
0.737831
0.771911
0.798165
0.818134
0.831266
0.838013
0.839855
0.840204
0.840256
0.0788097
0.10261
0.146885
0.204913
0.269825
0.338321
0.40942
0.482711
0.557493
0.632835
0.698495
0.74761
0.784067
0.811988
0.832951
0.846807
0.85398
0.856209
0.856637
0.8567
0.0451399
0.0694011
0.115906
0.177209
0.246115
0.319083
0.395019
0.473396
0.553406
0.633958
0.704015
0.756218
0.794755
0.823932
0.845592
0.859898
0.867428
0.870031
0.870573
0.870644
0.0145374
0.0392056
0.0875386
0.15166
0.224001
0.300883
0.381141
0.464143
0.548983
0.634438
0.708658
0.763748
0.804102
0.834302
0.856462
0.87112
0.878951
0.881816
0.88243
0.882489
-0.013909
0.0111343
0.0610688
0.127582
0.202971
0.28333
0.367466
0.454701
0.544065
0.634197
0.712446
0.770297
0.81232
0.843409
0.865968
0.880918
0.888952
0.891953
0.892563
0.892585
-0.0409434
-0.0154927
0.0359233
0.104549
0.182656
0.266126
0.353774
0.444909
0.538527
0.633175
0.715396
0.775965
0.819594
0.851511
0.874477
0.889599
0.897737
0.900807
0.901458
0.901448
-0.0668678
-0.0409981
0.0115857
0.0822656
0.162805
0.249078
0.339918
0.434653
0.532291
0.631329
0.717509
0.780832
0.826108
0.858898
0.882287
0.897591
0.905763
0.908821
0.909484
0.90947
-0.0920432
-0.0656213
-0.0119881
0.0605391
0.14326
0.232059
0.325803
0.423865
0.525293
0.628594
0.718766
0.784954
0.831997
0.865764
0.889633
0.905107
0.913293
0.916296
0.916869
0.916812
-0.116547
-0.0897262
-0.0349424
0.0392287
0.123928
0.215003
0.311383
0.412508
0.517494
0.624926
0.719136
0.788364
0.83736
0.872237
0.896644
0.912278
0.920403
0.923306
0.923783
0.923658
-0.140472
-0.11315
-0.0573488
0.0182988
0.104773
0.197891
0.296649
0.40057
0.508873
0.620275
0.71856
0.791051
0.842257
0.878425
0.90342
0.919156
0.927114
0.929821
0.93018
0.930005
-0.163916
-0.136029
-0.0792533
-0.0022646
0.0857919
0.180737
0.281626
0.388081
0.499435
0.614604
0.716967
0.792965
0.846719
0.884426
0.910068
0.925814
0.933481
0.935894
0.936129
0.935919
-0.186883
-0.158353
-0.100671
-0.0224495
0.067026
0.163577
0.266365
0.375083
0.489204
0.607884
0.714282
0.794021
0.850723
0.89033
0.91674
0.932341
0.939496
0.941513
0.941611
0.941377
-0.209208
-0.180075
-0.121526
-0.0422195
0.0485102
0.14648
0.250928
0.361649
0.478236
0.600135
0.710434
0.794102
0.854181
0.896205
0.923665
0.938954
0.945231
0.94665
0.946591
0.946353
-0.230869
-0.201159
-0.1418
-0.0615195
0.0303049
0.129505
0.235404
0.347855
0.466606
0.591383
0.705372
0.793069
0.85694
0.902025
0.931132
0.946132
0.950982
0.951345
0.951041
0.95085
-0.251933
-0.22157
-0.16147
-0.0803168
0.0124737
0.112735
0.21988
0.333803
0.454404
0.581695
0.699056
0.790771
0.85876
0.90759
0.939333
0.954696
0.957727
0.956049
0.955023
0.955092
-0.272233
-0.241294
-0.18048
-0.0985502
-0.004925
0.0962533
0.204447
0.319601
0.441746
0.571167
0.691483
0.787053
0.859343
0.912442
0.948022
0.96547
0.967622
0.963102
0.959737
0.959058
-0.291866
-0.260323
-0.198853
-0.116253
-0.0219285
0.0800101
0.189046
0.305186
0.428558
0.559725
0.68252
0.781644
0.858353
0.915934
0.956279
0.978338
0.982813
0.977545
0.968014
0.952561
-0.310765
-0.278654
-0.216714
-0.13363
-0.0388311
0.0636648
0.173251
0.290065
0.414294
0.546718
0.671505
0.773729
0.85515
0.917104
0.96189
0.990111
0.997979
0.98668
0.967447
0.953489
-0.328756
-0.296425
-0.233875
-0.150464
-0.0552955
0.0475663
0.15729
0.274567
0.399266
0.532421
0.65855
0.762907
0.849077
0.914823
0.960072
0.987857
0.999398
0.978189
0.909425
0.87801
-0.345181
-0.314871
-0.250009
-0.166219
-0.0705668
0.032216
0.14147
0.258918
0.383694
0.516964
0.643616
0.748943
0.838929
0.908644
0.946369
0.967069
0.962909
0.911274
0.841764
0.798746
-0.401231
-0.331148
-0.264724
-0.181984
-0.0862294
0.01616
0.125725
0.242839
0.367214
0.499909
0.626139
0.73135
0.821119
0.897811
0.903774
0.912627
0.870657
0.803764
0.727869
0.685405
-0.363088
-0.347047
-0.28656
-0.203385
-0.109172
-0.006923
0.101695
0.218152
0.341478
0.472573
0.596483
0.699585
0.780957
0.860062
0.852348
0.745398
0.643083
0.571812
0.499257
0.531656
-0.394441
-0.365091
-0.303709
-0.221315
-0.127114
-0.0250626
0.0838169
0.199656
0.321916
0.451155
0.572127
0.671108
0.744439
0.786053
0.740552
0.596886
0.471694
0.381758
0.283357
0.335154
-0.41868
-0.386403
-0.323803
-0.241255
-0.146985
-0.0450295
0.0637837
0.178813
0.299685
0.426512
0.543741
0.636977
0.701186
0.710286
0.60743
0.436945
0.285832
0.167965
0.0366912
0.0704859
-0.442443
-0.408612
-0.34485
-0.261461
-0.16708
-0.0652499
0.0430832
0.157182
0.276483
0.400556
0.513208
0.599922
0.64894
0.627264
0.472384
0.277599
0.0878424
-0.0804132
-0.270585
-0.287319
-0.465635
-0.431342
-0.366712
-0.282605
-0.188063
-0.0864187
0.0213189
0.134377
0.251868
0.372846
0.48032
0.559907
0.590988
0.534227
0.344053
0.134698
-0.0826893
-0.272828
-0.517082
-0.823736
-0.489147
-0.454842
-0.389685
-0.305129
-0.210394
-0.108875
-0.00165404
0.110344
0.22594
0.343601
0.445706
0.516981
0.529353
0.422161
0.232647
0.0239939
-0.180153
-0.352563
-0.419825
-0.502612
-0.513938
-0.47956
-0.414119
-0.329364
-0.234574
-0.133266
-0.0266483
0.0841287
0.197529
0.311382
0.407727
0.468647
0.4569
0.316087
0.13403
-0.0552911
-0.216992
-0.308773
-0.332339
-0.348601
-0.540323
-0.505811
-0.440193
-0.355398
-0.260734
-0.159805
-0.0540221
0.0552435
0.166051
0.275469
0.365551
0.413294
0.383815
0.21759
0.044839
-0.118984
-0.244371
-0.282415
-0.295808
-0.297107
-0.568508
-0.533778
-0.467975
-0.38323
-0.288828
-0.188494
-0.08379
0.0236423
0.13144
0.23585
0.318843
0.352595
0.306011
0.126131
-0.0373852
-0.183597
-0.259278
-0.275793
-0.27733
-0.277232
-0.598565
-0.563529
-0.497496
-0.412859
-0.318871
-0.219321
-0.115953
-0.0106873
0.0937031
0.192596
0.267575
0.290315
0.20797
0.0419403
-0.113312
-0.233371
-0.267685
-0.267411
-0.267177
-0.266657
-0.630215
-0.594895
-0.528654
-0.4442
-0.350771
-0.252226
-0.150473
-0.0477132
0.0528776
0.145813
0.212527
0.218669
0.115942
-0.0364002
-0.173046
-0.249291
-0.258557
-0.260364
-0.260752
-0.260513
-0.662917
-0.627433
-0.561199
-0.477027
-0.384341
-0.287047
-0.187192
-0.0872934
0.00914756
0.0958055
0.154241
0.144302
0.03137
-0.104068
-0.217237
-0.24606
-0.256105
-0.257418
-0.256888
-0.256434
-0.696224
-0.660619
-0.594698
-0.510952
-0.419236
-0.323459
-0.225825
-0.129125
-0.0371999
0.043244
0.0919894
0.072576
-0.0504361
-0.164342
-0.244863
-0.267643
-0.257546
-0.256181
-0.255984
-0.255494
-0.729268
-0.693761
-0.628292
-0.545385
-0.454913
-0.360982
-0.265914
-0.172717
-0.0856841
-0.0111351
0.0277951
0.00741023
-0.128037
-0.22491
-0.250789
-0.26004
-0.260748
-0.257622
-0.255947
-0.255547
-0.760502
-0.725692
-0.661051
-0.579412
-0.490608
-0.398909
-0.306791
-0.21738
-0.135457
-0.0666708
-0.0323722
-0.0615172
-0.192679
-0.315049
-0.304231
-0.299204
-0.2767
-0.258222
-0.251563
-0.24987
-0.788399
-0.754639
-0.691848
-0.611872
-0.525279
-0.436294
-0.347566
-0.262262
-0.185341
-0.122512
-0.0881304
-0.125253
-0.230662
-0.410581
-0.450479
-0.365723
-0.299863
-0.268014
-0.254441
-0.249886
-0.810903
-0.778842
-0.718717
-0.641365
-0.557637
-0.471967
-0.387113
-0.306299
-0.234207
-0.177366
-0.143192
-0.167075
-0.203727
-0.356738
-0.53617
-0.378272
-0.343796
-0.330145
-0.314351
-0.306035
-0.825839
-0.796414
-0.739757
-0.666067
-0.586143
-0.504549
-0.424159
-0.348188
-0.281041
-0.229921
-0.195134
-0.189239
-0.0868836
0.0723256
-0.00737133
-0.229976
-0.369067
-0.40055
-0.400114
-0.400528
-0.830602
-0.805159
-0.753096
-0.684108
-0.609065
-0.532509
-0.457219
-0.38651
-0.324769
-0.27921
-0.239431
-0.241125
-0.115563
0.179887
-0.024232
-0.292401
-0.428006
-0.461883
-0.46922
-0.472919
-0.823299
-0.802637
-0.756595
-0.693867
-0.624812
-0.554149
-0.484623
-0.419648
-0.364166
-0.324684
-0.288341
-0.411564
-0.643522
-0.901723
-0.889877
-0.727097
-0.654625
-0.639748
-0.638437
-0.639757
-0.801636
-0.785739
-0.748454
-0.694042
-0.632206
-0.568168
-0.504679
-0.445444
-0.396429
-0.366259
-0.367365
-0.616498
-1.02535
-1.37811
-1.24164
-0.951785
-0.864956
-0.822921
-0.802172
-0.796073
-0.767521
-0.75705
-0.729001
-0.68459
-0.630949
-0.573833
-0.516054
-0.461545
-0.416583
-0.392751
-0.405196
-0.577871
-0.682491
-0.665437
-0.481263
-0.602379
-0.747155
-0.780862
-0.744591
-0.752896
-0.726664
-0.720719
-0.702513
-0.667842
-0.622485
-0.571389
-0.518171
-0.465896
-0.421205
-0.39289
-0.405902
-0.487332
-0.693056
-1.02815
-1.42741
-1.72841
-1.71412
-1.46803
-1.21529
-1.12145
-0.687551
-0.684168
-0.674535
-0.648718
-0.609622
-0.562778
-0.511691
-0.458929
-0.408659
-0.373113
-0.380879
-0.460971
-0.632698
-0.87088
-1.06365
-1.23023
-1.2412
-1.10849
-0.93987
-0.852807
-0.656965
-0.654927
-0.650128
-0.631789
-0.597237
-0.55147
-0.499342
-0.44166
-0.383237
-0.326433
-0.286522
-0.244888
-0.12646
0.0718113
0.292665
0.504648
0.708784
0.853296
0.95194
0.998436
-0.631138
-0.63032
-0.629066
-0.618626
-0.588136
-0.541425
-0.484746
-0.419656
-0.347222
-0.267368
-0.181215
-0.0564612
0.210721
0.61874
1.04756
1.43116
1.71465
1.89954
1.99456
2.0232
-0.614273
-0.613714
-0.613452
-0.608429
-0.582483
-0.533801
-0.470732
-0.396895
-0.311254
-0.215681
-0.10332
0.0139169
0.330298
0.775333
1.24629
1.67843
2.00776
2.20698
2.30131
2.32959
-0.602778
-0.602372
-0.602111
-0.600974
-0.580061
-0.529403
-0.459349
-0.377711
-0.284241
-0.179019
-0.0671558
0.0429213
0.272134
0.702409
1.15369
1.55971
1.86387
2.04239
2.12458
2.14832
-0.595581
-0.594156
-0.592501
-0.593744
-0.58006
-0.527827
-0.450724
-0.361884
-0.265004
-0.156518
-0.0451316
0.0735285
0.240655
0.597484
0.965885
1.28198
1.52438
1.66851
1.73563
1.75459
-0.601417
-0.599647
-0.599909
-0.603153
-0.588663
-0.527387
-0.440691
-0.345342
-0.246545
-0.138909
-0.0304979
0.081164
0.205678
0.434649
0.727339
0.966191
1.15297
1.26319
1.3118
1.32444
-0.615623
-0.617942
-0.625333
-0.627134
-0.600165
-0.520532
-0.421779
-0.322852
-0.226413
-0.125649
-0.0288701
0.0632615
0.150237
0.301671
0.503806
0.680389
0.819225
0.901832
0.938726
0.946795
-0.591307
-0.599244
-0.611245
-0.609854
-0.570196
-0.481799
-0.382788
-0.28967
-0.203049
-0.116247
-0.0343156
0.0390189
0.108374
0.198807
0.34095
0.464304
0.55665
0.611029
0.632191
0.635471
-0.466705
-0.475381
-0.48533
-0.482636
-0.449459
-0.384771
-0.312633
-0.241148
-0.172783
-0.103626
-0.0384147
0.015742
0.0648959
0.117442
0.206542
0.291084
0.352202
0.39037
0.405109
0.406095
-0.274867
-0.279687
-0.286472
-0.289138
-0.278141
-0.25256
-0.218566
-0.179214
-0.135782
-0.0876635
-0.0436072
-0.00876618
0.0210272
0.0551535
0.111728
0.166495
0.205305
0.227047
0.235088
0.23458
-0.100548
-0.102955
-0.108845
-0.118419
-0.127995
-0.133091
-0.130055
-0.118424
-0.0984583
-0.0716976
-0.0461838
-0.0272734
-0.0125324
0.00712012
0.0429543
0.0776627
0.101546
0.11288
0.116548
0.115426
0.00900071
0.00767059
0.00217265
-0.010951
-0.0308305
-0.0502474
-0.0637769
-0.0691151
-0.0656418
-0.0549102
-0.0441485
-0.0391521
-0.0373662
-0.0238495
0.00033418
0.021038
0.0327403
0.037333
0.0381504
0.0371238
0.0583592
0.0573322
0.0524668
0.040058
0.0201628
-0.00166127
-0.0206068
-0.033689
-0.0397503
-0.0398259
-0.0397115
-0.0439059
-0.0487175
-0.0385145
-0.0214986
-0.0107233
-0.00627333
-0.00580898
-0.00644878
-0.00733416
0.0720922
0.0713235
0.0676182
0.0579404
0.0418858
0.0230636
0.00497259
-0.00991231
-0.0200983
-0.0259562
-0.0314769
-0.0398642
-0.047067
-0.0393215
-0.0284851
-0.0231128
-0.0225623
-0.0239248
-0.0249157
-0.0256337
0.0692348
0.0687133
0.0661775
0.0594117
0.0478088
0.0333957
0.0184703
0.00505724
-0.00551942
-0.0130915
-0.0197583
-0.0280606
-0.0338633
-0.0260003
-0.0198086
-0.0189559
-0.0207601
-0.0229406
-0.0239601
-0.0246011
0.0600059
0.0596714
0.058059
0.0536871
0.0459064
0.035734
0.0245801
0.0139665
0.00505864
-0.00128926
-0.0055075
-0.00967944
-0.0106695
-0.00366926
-0.0012065
-0.00327495
-0.00631825
-0.00852426
-0.00947494
-0.0101253
0.0492854
0.0490708
0.0481064
0.0454855
0.0406366
0.033974
0.0263097
0.0188067
0.0125701
0.00907411
0.0092884
0.011888
0.016167
0.0219485
0.0213954
0.0179899
0.0149339
0.0133541
0.0126466
0.0119585
0.0392699
0.039124
0.0385806
0.0371397
0.034358
0.0303155
0.0254612
0.0206671
0.0170488
0.0165982
0.0222025
0.0328069
0.0443637
0.0484046
0.0440847
0.0397576
0.0377929
0.037284
0.036895
0.0360222
0.030762
0.0306551
0.0303549
0.029634
0.0281804
0.0259039
0.0230683
0.0202902
0.0187788
0.0208521
0.0302387
0.0468673
0.0632798
0.0643485
0.0580742
0.0547011
0.0544687
0.0555969
0.0555844
0.0545729
0.0238536
0.0237699
0.0235928
0.0232441
0.0225331
0.0212977
0.0196803
0.0180933
0.01756
0.0203784
0.0306603
0.0486465
0.065196
0.0647065
0.0597068
0.0591294
0.0611147
0.0633142
0.0634485
0.0622819
0.0183274
0.0182545
0.0181186
0.0179108
0.0175125
0.0167748
0.0156745
0.0144917
0.0138697
0.0154434
0.0225196
0.0361891
0.048767
0.047067
0.0445413
0.047141
0.0526047
0.0562642
0.0565107
0.0553504
0.0138317
0.013762
0.0136282
0.0134242
0.0131439
0.0125079
0.0115083
0.0101689
0.00849983
0.00704692
0.00730125
0.0105722
0.0140716
0.0118297
0.0152417
0.0233532
0.0309048
0.0349258
0.0351576
0.0341543
0.0100673
0.00999812
0.00987835
0.00967071
0.00930859
0.00869204
0.00759267
0.00577364
0.00286706
-0.00245084
-0.0109152
-0.0221663
-0.0330562
-0.0337304
-0.0215536
-0.00779415
0.00123119
0.00456326
0.00499023
0.00439286
0.00696206
0.00689602
0.00677601
0.00648743
0.0061083
0.0054837
0.00434737
0.00235976
-0.00141785
-0.00945454
-0.0261618
-0.0517297
-0.0758375
-0.0710454
-0.0515417
-0.0343816
-0.0260756
-0.0232366
-0.0225914
-0.0228259
0.0043841
0.00431241
0.00418997
0.00395142
0.00357568
0.00301066
0.00198752
5.78083e-05
-0.0038101
-0.0119607
-0.0305383
-0.0629776
-0.0907796
-0.082504
-0.0606184
-0.046668
-0.0409643
-0.039388
-0.0385631
-0.0383857
0.00223224
0.00216491
0.00212383
0.00200193
0.00170174
0.00131478
0.000653941
-0.000737846
-0.00344542
-0.00958172
-0.0233926
-0.0488807
-0.0689291
-0.058021
-0.0429268
-0.036853
-0.0350186
-0.0347841
-0.0340122
-0.0336573
0.000618472
0.000560284
0.000499655
0.000479024
0.000471426
0.00027145
3.32509e-06
-7.46591e-05
-0.000322077
-0.000989224
-0.00269662
-0.00714509
-0.0150296
-0.0145726
-0.0131219
-0.0131706
-0.0135717
-0.0124066
-0.0102064
-0.00902904
-0.0391195
0.130515
0.328952
0.501543
0.639991
0.749701
0.840757
0.917917
0.952588
0.929276
0.26973
0.392341
0.524161
0.638328
0.734781
0.814795
0.87954
0.925389
0.948357
0.960365
0.49227
0.576371
0.666426
0.746204
0.814848
0.872284
0.917922
0.951235
0.97527
0.9932
0.655279
0.715228
0.778218
0.836051
0.886482
0.929276
0.964399
0.992394
1.01539
1.03366
0.782307
0.826073
0.872617
0.916951
0.956136
0.990337
1.01959
1.04392
1.06444
1.08225
0.887576
0.92085
0.959342
0.995252
1.02819
1.0577
1.08347
1.10511
1.12306
1.14039
0.980739
1.00966
1.0439
1.07626
1.10641
1.13375
1.15763
1.17745
1.19302
1.2101
1.06971
1.09906
1.13323
1.16542
1.19515
1.22184
1.2448
1.26335
1.27677
1.29381
1.16526
1.19856
1.2353
1.26897
1.2991
1.32536
1.34737
1.36469
1.37659
1.394
1.2804
1.31829
1.357
1.3913
1.42069
1.44549
1.46589
1.48181
1.49331
1.51138
1.42543
1.46401
1.5002
1.53092
1.55663
1.57875
1.59783
1.61338
1.62582
1.64382
1.60058
1.63221
1.65841
1.68089
1.70088
1.71962
1.73735
1.75384
1.7692
1.78727
1.78923
1.80643
1.82148
1.83773
1.85365
1.86819
1.8814
1.89534
1.91288
1.93304
1.97095
1.9805
1.99206
2.00287
2.01216
2.02175
2.03254
2.04391
2.05528
2.07064
2.17822
2.18188
2.16694
2.15213
2.14585
2.15154
2.17002
2.20033
2.23251
2.25917
2.48453
2.34966
2.27304
2.23067
2.21325
2.21721
2.24461
2.30103
2.40365
2.62801
0.776355
0.774224
0.769739
0.761109
0.748879
0.736742
0.7265
0.718584
0.712938
0.709645
0.709241
0.71193
0.716994
0.724186
0.733551
0.745075
0.757714
0.768741
0.774849
0.777899
0.700818
0.706664
0.712998
0.717484
0.719946
0.719611
0.71686
0.713028
0.709488
0.707186
0.706988
0.709132
0.712751
0.717007
0.720789
0.722654
0.721705
0.718213
0.713044
0.706421
0.692417
0.694713
0.698112
0.701102
0.703168
0.704652
0.705389
0.705049
0.703991
0.703063
0.703179
0.704547
0.706314
0.707581
0.707731
0.706819
0.705253
0.702904
0.699632
0.696708
0.686935
0.688021
0.68985
0.69222
0.694233
0.695647
0.696647
0.69737
0.697733
0.697904
0.698328
0.699068
0.699609
0.699629
0.69918
0.698304
0.696813
0.694712
0.692614
0.691227
0.681771
0.682434
0.683537
0.685234
0.687003
0.688618
0.68989
0.690873
0.691711
0.69244
0.693092
0.693562
0.693686
0.693463
0.692851
0.69176
0.690304
0.688738
0.687406
0.686622
0.676844
0.677305
0.678087
0.679376
0.680849
0.682347
0.683785
0.685046
0.68613
0.687114
0.687935
0.688404
0.688464
0.688118
0.687363
0.686326
0.685163
0.684002
0.683069
0.682548
0.672079
0.672424
0.673031
0.674089
0.675367
0.676719
0.678127
0.679531
0.680844
0.682039
0.683036
0.683606
0.683675
0.683309
0.682635
0.681797
0.680897
0.679995
0.6793
0.678918
0.667421
0.667689
0.668179
0.669077
0.67023
0.671502
0.672862
0.674302
0.675774
0.677193
0.678405
0.679123
0.679289
0.679052
0.678563
0.677924
0.677211
0.676523
0.676006
0.675714
0.662796
0.663009
0.663415
0.664203
0.665275
0.666496
0.667841
0.669318
0.670907
0.672541
0.674008
0.67495
0.67532
0.675293
0.675008
0.674565
0.674038
0.673528
0.673145
0.672916
0.658119
0.65829
0.658638
0.659353
0.660378
0.661575
0.662941
0.66449
0.666214
0.668076
0.669846
0.6711
0.671751
0.671974
0.671908
0.671665
0.671325
0.670971
0.670698
0.670515
0.653311
0.653449
0.653754
0.654425
0.655433
0.656651
0.658076
0.659737
0.661648
0.663783
0.665924
0.667573
0.668565
0.669075
0.669254
0.669218
0.669054
0.668846
0.668664
0.668518
0.648292
0.648403
0.64868
0.649332
0.650358
0.651642
0.653171
0.655
0.657169
0.659664
0.662269
0.664386
0.665771
0.666605
0.667054
0.667237
0.667253
0.667183
0.667079
0.666961
0.642977
0.643064
0.643324
0.643982
0.645062
0.646453
0.64814
0.650202
0.652704
0.655659
0.658838
0.66152
0.663368
0.664578
0.665327
0.665758
0.665964
0.666028
0.665993
0.665898
0.637274
0.637338
0.63759
0.638275
0.639446
0.640992
0.642897
0.645267
0.648188
0.651718
0.655603
0.658969
0.661376
0.663029
0.664126
0.664833
0.665245
0.665445
0.665476
0.665401
0.631073
0.631116
0.631366
0.632099
0.633398
0.635149
0.63734
0.6401
0.643555
0.647791
0.65254
0.656748
0.659832
0.662018
0.663517
0.664531
0.66519
0.665537
0.665632
0.665574
0.624236
0.624255
0.624508
0.625312
0.626781
0.628799
0.631363
0.634634
0.638773
0.643899
0.649709
0.654926
0.658809
0.661616
0.66359
0.664963
0.665897
0.666406
0.666567
0.666526
0.616579
0.616588
0.616845
0.617735
0.619428
0.621781
0.624817
0.62873
0.633725
0.639965
0.64708
0.65351
0.658348
0.661894
0.664446
0.666263
0.667507
0.668191
0.668422
0.668395
0.607832
0.607807
0.608117
0.609141
0.611103
0.613882
0.617521
0.62224
0.628294
0.635889
0.644592
0.652507
0.65851
0.662949
0.666183
0.668539
0.670157
0.671049
0.671356
0.671341
0.597712
0.597662
0.598012
0.599216
0.601523
0.604853
0.60926
0.615013
0.622428
0.631734
0.642382
0.652065
0.659424
0.66491
0.668965
0.671952
0.674011
0.675139
0.675529
0.675525
0.585753
0.585674
0.5861
0.587541
0.590303
0.594354
0.599762
0.60685
0.615985
0.627413
0.640419
0.652204
0.661179
0.667916
0.672944
0.676671
0.679253
0.680654
0.68113
0.681132
0.571331
0.571224
0.571766
0.573528
0.576887
0.581897
0.588628
0.597455
0.608785
0.62284
0.638696
0.652977
0.663841
0.672032
0.678217
0.682834
0.686037
0.687748
0.68831
0.688309
0.553466
0.553334
0.554069
0.556318
0.560541
0.566908
0.575478
0.586667
0.600873
0.618228
0.637477
0.654611
0.667602
0.677439
0.684939
0.690558
0.694456
0.696495
0.697135
0.697122
0.530685
0.530538
0.531607
0.534632
0.540187
0.548568
0.559757
0.574158
0.592068
0.613451
0.63669
0.657104
0.672493
0.684164
0.693116
0.699868
0.704517
0.706882
0.707579
0.707543
0.500642
0.500522
0.502207
0.50661
0.514427
0.525995
0.541074
0.559931
0.582628
0.608901
0.636712
0.66071
0.678681
0.692312
0.702805
0.710775
0.716155
0.718794
0.719512
0.719443
0.459209
0.459257
0.462319
0.469605
0.481631
0.498436
0.519297
0.544159
0.572818
0.604809
0.637701
0.665548
0.686218
0.701889
0.714004
0.723204
0.729223
0.732012
0.732695
0.732585
0.398705
0.399908
0.407448
0.421143
0.440878
0.465993
0.494987
0.527507
0.563249
0.601642
0.639955
0.671754
0.695146
0.712835
0.726551
0.736869
0.743381
0.746146
0.746682
0.746532
0.326427
0.32825
0.342676
0.366344
0.396932
0.431857
0.469763
0.51052
0.553933
0.599496
0.644227
0.681078
0.708182
0.728733
0.744547
0.756308
0.763502
0.766379
0.766982
0.766952
0.251736
0.257998
0.279297
0.313136
0.354013
0.398504
0.445315
0.494364
0.545548
0.598417
0.649776
0.691906
0.72289
0.746507
0.764848
0.778307
0.78602
0.788563
0.788975
0.789034
0.1908
0.199294
0.225247
0.266106
0.31493
0.367555
0.422379
0.47918
0.537772
0.597665
0.655371
0.702448
0.737003
0.763318
0.783659
0.798331
0.806324
0.809231
0.810113
0.810247
0.141176
0.150255
0.179754
0.225799
0.280715
0.339886
0.401451
0.465085
0.530419
0.596857
0.660516
0.712207
0.749992
0.778698
0.80084
0.81671
0.825612
0.829159
0.83023
0.830386
0.0994819
0.108836
0.140766
0.190763
0.250645
0.315236
0.382516
0.452101
0.523469
0.595886
0.665051
0.720978
0.761719
0.792591
0.816311
0.833168
0.842848
0.846868
0.848127
0.848285
0.0633147
0.0727883
0.10655
0.159719
0.223671
0.292857
0.365112
0.439955
0.516753
0.594635
0.668872
0.728707
0.772128
0.804827
0.829672
0.847234
0.857627
0.862062
0.863406
0.863578
0.0310226
0.0405483
0.0757112
0.13156
0.198929
0.272064
0.348711
0.42827
0.510016
0.592947
0.671939
0.73543
0.781266
0.815468
0.841111
0.85918
0.870003
0.874797
0.876268
0.876464
0.00135912
0.0109443
0.0472575
0.105424
0.175749
0.252345
0.332889
0.416712
0.503016
0.590697
0.674224
0.741205
0.789273
0.824783
0.8511
0.869568
0.880675
0.885759
0.887296
0.887485
-0.0264827
-0.0168351
0.020512
0.0806755
0.153635
0.233316
0.317345
0.405047
0.495585
0.587774
0.675705
0.746095
0.796301
0.833004
0.859912
0.878684
0.889966
0.895199
0.896746
0.896943
-0.053012
-0.0432898
-0.00498334
0.0568888
0.132253
0.214693
0.301872
0.393123
0.487602
0.584101
0.676357
0.750149
0.802484
0.840373
0.867875
0.88694
0.898357
0.903626
0.905174
0.905277
-0.078665
-0.0687701
-0.0296158
0.0338881
0.111383
0.196301
0.286332
0.380829
0.478993
0.579617
0.676142
0.753395
0.80794
0.847096
0.875253
0.894621
0.906147
0.911383
0.912879
0.91297
-0.10362
-0.0934981
-0.0535923
0.0114691
0.0908811
0.178031
0.270641
0.368112
0.469704
0.574269
0.675018
0.755836
0.812751
0.853314
0.882219
0.901914
0.913521
0.91869
0.920088
0.920159
-0.127936
-0.117605
-0.0769161
-0.0104697
0.0706727
0.159836
0.254769
0.354947
0.459711
0.56801
0.67293
0.757458
0.816962
0.859127
0.888884
0.90891
0.920521
0.925546
0.926817
0.926827
-0.151744
-0.141116
-0.0996874
-0.0319502
0.0507384
0.141701
0.238717
0.341343
0.449018
0.560825
0.669818
0.758201
0.820584
0.864618
0.895359
0.915691
0.927206
0.931997
0.933077
0.93302
-0.174978
-0.164073
-0.121924
-0.0529996
0.0310904
0.123654
0.222525
0.327342
0.437652
0.552703
0.665628
0.757984
0.823578
0.869838
0.901762
0.922368
0.933604
0.938002
0.938863
0.938749
-0.197684
-0.186476
-0.143567
-0.0735861
0.0117583
0.105734
0.206244
0.313008
0.425667
0.543662
0.660317
0.756714
0.825852
0.8748
0.908243
0.929116
0.93981
0.943584
0.944161
0.943993
-0.219684
-0.208243
-0.164594
-0.0936555
-0.00720434
0.0880139
0.18994
0.29841
0.413134
0.53376
0.653864
0.754293
0.827272
0.879439
0.914958
0.936271
0.94608
0.948792
0.948938
0.948724
-0.241117
-0.229331
-0.184987
-0.113184
-0.0257616
0.0705377
0.173708
0.283632
0.400141
0.523076
0.646281
0.750616
0.827655
0.883576
0.921961
0.944336
0.953074
0.953984
0.953223
0.952926
-0.26182
-0.24972
-0.204719
-0.132127
-0.043833
0.0533907
0.157628
0.268791
0.386797
0.511677
0.637614
0.745592
0.826788
0.886893
0.929035
0.953753
0.962114
0.960585
0.957614
0.956372
-0.281856
-0.269454
-0.22374
-0.150432
-0.0613825
0.0366422
0.141784
0.253967
0.373211
0.499703
0.627943
0.739143
0.824459
0.888948
0.935496
0.964248
0.974582
0.972033
0.964991
0.95574
-0.301148
-0.288498
-0.24215
-0.168262
-0.0786271
0.0200053
0.125829
0.238746
0.358922
0.486633
0.616713
0.730668
0.820107
0.889212
0.940358
0.974596
0.990343
0.989673
0.979411
0.97214
-0.31965
-0.306781
-0.259944
-0.185587