/*--------------------------------*- C++ -*----------------------------------*\
| =========                 |                                                 |
| \\      /  F ield         | OpenFOAM: The Open Source CFD Toolbox           |
|  \\    /   O peration     | Version:  4.0                                   |
|   \\  /    A nd           | Web:      www.OpenFOAM.org                      |
|    \\/     M anipulation  |                                                 |
\*---------------------------------------------------------------------------*/
FoamFile
{
    version     2.0;
    format      ascii;
    class       surfaceScalarField;
    location    "42";
    object      phi;
}
// * * * * * * * * * * * * * * * * * * * * * * * * * * * * * * * * * * * * * //

dimensions      [0 3 -1 0 0 0 0];

internalField   nonuniform List<scalar> 
17370
(
-0.0916069
0.096007
0.284611
-0.0775907
0.0594144
0.364952
-0.0430363
0.031617
0.427587
-0.0223126
0.0162589
0.505305
-0.0116638
0.00878777
0.602278
-0.00657533
0.00509216
0.720541
-0.00386123
0.00298832
0.863779
-0.00222292
0.0016497
1.03602
-0.00112175
0.000702833
1.24292
-0.000292499
-9.92652e-05
1.49158
0.000485864
-0.000895687
1.4916
0.00129779
-0.00180228
1.24319
0.00235483
-0.00310192
1.03638
0.00396412
-0.00518858
0.864131
0.00666682
-0.00887119
0.721262
0.0117358
-0.0163148
0.603794
0.0223529
-0.0316413
0.508728
0.0430445
-0.0594121
0.432536
0.07759
-0.0960046
0.36519
0.09162
0.197391
-0.127088
0.0880181
0.0390695
-0.364351
0.354025
-0.0714788
0.081805
-0.446655
0.454248
-0.0791695
0.0715763
-0.521009
0.529106
-0.0637266
0.0556292
-0.612987
0.620758
-0.0482416
0.0404705
-0.72716
0.733681
-0.033857
0.0273364
-0.86758
0.872422
-0.0221371
0.0172952
-1.03856
1.04189
-0.0136078
0.0102781
-1.24472
1.24712
-0.00773318
0.00533243
-1.49284
1.49485
-0.00337275
0.00136336
-1.49269
1.49451
0.000454432
-0.0022722
-1.24411
1.24602
0.00424343
-0.00615311
-1.03761
1.04009
0.00848916
-0.0109714
-0.866188
0.869825
0.0142359
-0.0178726
-0.724595
0.729757
0.0226691
-0.0278316
-0.609067
0.61564
0.0343116
-0.0408844
-0.515126
0.522464
0.0486068
-0.0559452
-0.43988
0.447663
0.0639723
-0.0717559
-0.374711
0.377357
0.0792595
-0.0819051
-0.256903
0.224445
0.0715564
-0.0390985
-0.0688017
0.0591872
0.00961452
-0.0521224
0.0589568
-0.374832
0.367998
-0.0581122
0.0542726
-0.45394
0.45778
-0.0487863
0.0442271
-0.527608
0.532167
-0.0396765
0.0357808
-0.620791
0.624687
-0.0315705
0.0275826
-0.734652
0.73864
-0.0232381
0.0193631
-0.873947
0.877822
-0.0153295
0.0118808
-1.04335
1.0468
-0.00836964
0.0053441
-1.24864
1.25167
-0.00214301
-0.000833624
-1.49694
1.49992
0.00378969
-0.00693341
-1.49742
1.50056
0.00987714
-0.0132797
-1.25007
1.25347
0.0166212
-0.0205382
-1.04566
1.04957
0.0243166
-0.028568
-0.877144
0.881395
0.0324794
-0.0366087
-0.738989
0.743119
0.0404319
-0.0449075
-0.62598
0.630456
0.0494045
-0.0548307
-0.535024
0.54045
0.0586038
-0.0593697
-0.458085
0.45885
0.0524316
-0.0320532
-0.336777
0.316399
0.00966981
-0.0686723
0.0590025
-0.0533957
0.0492811
0.00411457
-0.0332641
0.0436968
-0.358543
0.34811
-0.0473795
0.0467975
-0.459566
0.460148
-0.0438729
0.0406628
-0.536117
0.539327
-0.0369882
0.0336367
-0.628377
0.631729
-0.0300092
0.026778
-0.742015
0.745247
-0.0233399
0.0201551
-0.881316
0.884501
-0.0165739
0.0132317
-1.05022
1.05356
-0.00954408
0.00614982
-1.25493
1.25832
-0.00236962
-0.00123966
-1.50327
1.50688
0.00481943
-0.00851603
-1.50406
1.50776
0.0117978
-0.0153344
-1.25704
1.26058
0.0185239
-0.0219338
-1.05328
1.05669
0.0249734
-0.0282723
-0.884999
0.888298
0.0313901
-0.034901
-0.746801
0.750312
0.038148
-0.0417101
-0.634583
0.638145
0.0448225
-0.0476396
-0.5446
0.547417
0.0481125
-0.0442798
-0.456975
0.453142
0.033665
-0.0163655
-0.297095
0.279795
0.00417459
-0.0531569
0.0489823
-0.0461088
0.0435496
0.00255915
-0.023072
0.0334343
-0.337508
0.327146
-0.0391793
0.0401358
-0.45989
0.458934
-0.0388913
0.0365678
-0.541974
0.544298
-0.0339301
0.0313889
-0.634685
0.637226
-0.0284211
0.0255864
-0.748327
0.751161
-0.0223669
0.0193695
-0.887551
0.890549
-0.0160343
0.0129137
-1.05673
1.05985
-0.00937211
0.00598562
-1.2617
1.26509
-0.00208842
-0.00169944
-1.5106
1.51439
0.00545012
-0.00923556
-1.51154
1.51533
0.0124718
-0.0158115
-1.26404
1.26738
0.0187292
-0.0218381
-1.0599
1.06301
0.0246398
-0.0276658
-0.891494
0.89452
0.030342
-0.0331493
-0.753493
0.7563
0.0355497
-0.0380406
-0.641107
0.643598
0.0402391
-0.0413202
-0.549262
0.550343
0.0401968
-0.0342101
-0.448032
0.442046
0.0235846
-0.0103566
-0.264626
0.251398
0.0026333
-0.045744
0.0431107
-0.0414281
0.0396239
0.00180422
-0.0169718
0.0262723
-0.317264
0.307963
-0.032884
0.0350155
-0.457363
0.455232
-0.03459
0.0328977
-0.546319
0.548011
-0.0306759
0.0285556
-0.639526
0.641647
-0.0261312
0.0237702
-0.753753
0.756114
-0.020977
0.018248
-0.893394
0.896123
-0.0150805
0.0120613
-1.06288
1.0659
-0.00861376
0.00531598
-1.2684
1.27169
-0.00149609
-0.00223314
-1.51815
1.52188
0.00591459
-0.00959291
-1.51907
1.52275
0.0127001
-0.0158937
-1.27067
1.27386
0.0186586
-0.0215385
-1.06604
1.06892
0.0240124
-0.0265471
-0.897304
0.899839
0.0286963
-0.0309119
-0.758747
0.760962
0.0328547
-0.0348911
-0.645836
0.647873
0.0364045
-0.0366091
-0.55094
0.551144
0.0342228
-0.0272603
-0.435479
0.428516
0.0176089
-0.00744988
-0.239849
0.22969
0.00189466
-0.0409083
0.0390137
-0.0380707
0.0367148
0.00135586
-0.0129746
0.0209902
-0.299308
0.291292
-0.0277767
0.0307143
-0.452663
0.449725
-0.0309357
0.0298239
-0.549436
0.550547
-0.0278365
0.0259225
-0.643689
0.645603
-0.0237274
0.0216045
-0.758345
0.760468
-0.0191194
0.016672
-0.898658
0.901105
-0.0137757
0.0109435
-1.06877
1.07161
-0.00764042
0.00444823
-1.27491
1.2781
-0.000739915
-0.00287084
-1.52553
1.52914
0.00642265
-0.00995485
-1.52637
1.5299
0.0129087
-0.0158928
-1.27698
1.27997
0.018403
-0.0209332
-1.07165
1.07418
0.0230564
-0.0252131
-0.902159
0.904315
0.0270662
-0.0289952
-0.763011
0.76494
0.0306854
-0.0324526
-0.64975
0.651517
0.0333077
-0.0327818
-0.550991
0.550465
0.0294836
-0.0222202
-0.421348
0.414085
0.0137566
-0.00573938
-0.220705
0.212687
0.00146577
-0.0373619
0.0358961
-0.0355307
0.0344848
0.00104597
-0.010152
0.0169445
-0.283913
0.27712
-0.0234865
0.0268928
-0.446534
0.443128
-0.0276973
0.0270203
-0.551433
0.55211
-0.0252684
0.0234987
-0.647481
0.64925
-0.0214568
0.0194752
-0.762524
0.764506
-0.0171457
0.0148577
-0.903408
0.905696
-0.0121644
0.00952214
-1.07427
1.07691
-0.00641203
0.00337371
-1.28118
1.28421
0.000179622
-0.00363576
-1.53265
1.53611
0.00702077
-0.0103539
-1.53334
1.53667
0.0130961
-0.015811
-1.28285
1.28556
0.0180556
-0.0202966
-1.07657
1.07881
0.0221808
-0.0240986
-0.906345
0.908262
0.0257422
-0.027453
-0.76674
0.768451
0.0289478
-0.0303988
-0.653147
0.654598
0.0307517
-0.0295252
-0.549602
0.548376
0.0256245
-0.0184591
-0.406849
0.399684
0.0111071
-0.00460032
-0.205498
0.198991
0.00117949
-0.0345921
0.0334126
-0.0335664
0.0327498
0.000816632
-0.0080583
0.0137775
-0.270895
0.265176
-0.0198469
0.0234668
-0.439608
0.435988
-0.0247685
0.0243548
-0.552689
0.553103
-0.0228937
0.0212496
-0.651005
0.652649
-0.0193178
0.0174339
-0.766437
0.768321
-0.0152102
0.0130208
-0.907866
0.910055
-0.0104421
0.00792277
-1.07942
1.08194
-0.00497324
0.0020929
-1.28712
1.29
0.00127863
-0.00456191
-1.53945
1.54274
0.00775725
-0.0108635
-1.5399
1.543
0.0133849
-0.0158573
-1.28818
1.29065
0.0178948
-0.0199191
-1.08097
1.08299
0.0216045
-0.0233057
-0.910079
0.91178
0.0247597
-0.0262766
-0.770046
0.771562
0.0275791
-0.0286582
-0.655838
0.656917
0.0286507
-0.0267718
-0.546832
0.544953
0.0224997
-0.0156358
-0.392666
0.385802
0.00922448
-0.00380384
-0.19308
0.18766
0.000979104
-0.0323482
0.0313691
-0.0320325
0.0313931
0.000639433
-0.00644414
0.0112446
-0.259947
0.255147
-0.0167311
0.0203619
-0.432368
0.428737
-0.0219976
0.0218154
-0.55344
0.553622
-0.0205939
0.0190149
-0.654303
0.655882
-0.0171456
0.0153211
-0.770167
0.771992
-0.0131743
0.0110678
-0.912122
0.914229
-0.00859108
0.00617372
-1.08432
1.08674
-0.0033462
0.000596807
-1.29276
1.29551
0.0026019
-0.00569487
-1.54589
1.54899
0.00867951
-0.0115543
-1.54599
1.54887
0.0138648
-0.0161061
-1.29304
1.29528
0.0179314
-0.0197279
-1.08493
1.08673
0.0212169
-0.0227212
-0.913402
0.914907
0.0240153
-0.0253722
-0.772981
0.774338
0.0265428
-0.0272353
-0.657782
0.658474
0.0268745
-0.0244726
-0.542832
0.54043
0.0199971
-0.0135144
-0.37914
0.372658
0.00786376
-0.00323567
-0.182677
0.178049
0.000836681
-0.0304745
0.0296378
-0.0308344
0.0303384
0.000495956
-0.00514302
0.00914854
-0.250773
0.246768
-0.0140038
0.017498
-0.42519
0.421696
-0.0193357
0.0193617
-0.553752
0.553726
-0.0183565
0.0168279
-0.657504
0.659032
-0.0149993
0.0132069
-0.773787
0.775579
-0.0110977
0.00903275
-0.916218
0.918283
-0.00661285
0.00426078
-1.08903
1.09139
-0.00152321
-0.00111744
-1.29814
1.30078
0.00416149
-0.00707134
-1.55195
1.55486
0.00984976
-0.012501
-1.55162
1.55427
0.0146139
-0.0166472
-1.29745
1.29948
0.0182892
-0.0198923
-1.08846
1.09006
0.02121
-0.0225337
-0.916338
0.917662
0.0236665
-0.0248474
-0.775606
0.776787
0.0258338
-0.0261616
-0.658961
0.659289
0.025437
-0.0226009
-0.537835
0.534998
0.0180272
-0.0119298
-0.366388
0.360291
0.00687933
-0.00283216
-0.173747
0.1697
0.000737455
-0.028864
0.0281266
-0.0299107
0.0295361
0.000374633
-0.00405034
0.0073541
-0.24314
0.239836
-0.0115596
0.0147993
-0.41835
0.41511
-0.016707
0.0169056
-0.553668
0.553469
-0.0160101
0.0145816
-0.660581
0.662009
-0.0127766
0.0109908
-0.777347
0.779133
-0.0088875
0.00683568
-0.92024
0.922292
-0.00444586
0.00213926
-1.09362
1.09593
0.000521648
-0.00307752
-1.30331
1.30586
0.00600054
-0.00876439
-1.55765
1.56041
0.0113683
-0.0138088
-1.55681
1.55925
0.0157146
-0.0175141
-1.30144
1.30324
0.0189505
-0.0203424
-1.09159
1.09298
0.0214809
-0.0226258
-0.918924
0.920069
0.0236094
-0.0246197
-0.777897
0.778907
0.0253538
-0.0254052
-0.65947
0.659521
0.0242947
-0.0211019
-0.532002
0.52881
0.0164993
-0.0107552
-0.3544
0.348656
0.00617022
-0.00254766
-0.1659
0.162277
0.000669136
-0.0274376
0.0267684
-0.0292222
0.0289558
0.000266348
-0.0030888
0.00575569
-0.236876
0.234209
-0.00930881
0.0122099
-0.412068
0.409167
-0.0140713
0.0143631
-0.553293
0.553001
-0.0135209
0.0121461
-0.663491
0.664866
-0.0103281
0.00851724
-0.780899
0.78271
-0.00639462
0.00433872
-0.924225
0.926281
-0.00196095
-0.000315508
-1.09811
1.10039
0.00293613
-0.00542091
-1.30831
1.31079
0.00822661
-0.0108372
-1.56306
1.56567
0.0132536
-0.0154758
-1.56157
1.56379
0.0171761
-0.0187487
-1.30496
1.30654
0.0199774
-0.0211454
-1.09431
1.09547
0.0220901
-0.023043
-0.921145
0.922098
0.0238684
-0.0246982
-0.77984
0.78067
0.0251854
-0.0249767
-0.659412
0.659203
0.0234842
-0.0199745
-0.525488
0.521978
0.0153654
-0.00991403
-0.343099
0.337647
0.00567773
-0.00235692
-0.158841
0.15552
0.000625707
-0.0261364
0.0255107
-0.0287463
0.0285834
0.000162928
-0.00218921
0.00425101
-0.231866
0.229804
-0.00713939
0.00962886
-0.406504
0.404015
-0.0113437
0.0116671
-0.552779
0.552456
-0.0108714
0.00953888
-0.666321
0.667653
-0.00770783
0.0058588
-0.784497
0.786346
-0.00368421
0.00158086
-0.928219
0.930322
0.000837215
-0.00314069
-1.10256
1.10486
0.00574985
-0.00819156
-1.31317
1.31561
0.0109024
-0.0133751
-1.56815
1.57062
0.0156115
-0.0176105
-1.56588
1.56788
0.019099
-0.0204385
-1.30802
1.30936
0.0214583
-0.0224032
-1.09657
1.09752
0.0231517
-0.0238975
-0.922992
0.923738
0.0245425
-0.0251904
-0.781442
0.78209
0.0253701
-0.0248575
-0.658776
0.658264
0.0229958
-0.019191
-0.518371
0.514566
0.0145714
-0.00934405
-0.33236
0.327133
0.00535833
-0.00224202
-0.15234
0.149224
0.000603197
-0.0249138
0.0243106
-0.028476
0.0284172
5.88528e-05
-0.00130543
0.00277156
-0.228054
0.226588
-0.00497356
0.00697656
-0.401802
0.399799
-0.00842852
0.00869522
-0.552261
0.551994
-0.00790214
0.00658463
-0.669094
0.670411
-0.00471263
0.00279933
-0.788173
0.790086
-0.000541289
-0.00163532
-0.932308
0.934485
0.00412025
-0.0064617
-1.10706
1.1094
0.00908545
-0.0115054
-1.31795
1.32037
0.014144
-0.0164923
-1.57297
1.57532
0.0185507
-0.0203231
-1.56975
1.57152
0.0215845
-0.0226662
-1.31062
1.3117
0.0234463
-0.0241304
-1.0984
1.09909
0.0246379
-0.0251387
-0.924418
0.924919
0.0255892
-0.026047
-0.782609
0.783067
0.0259192
-0.0250433
-0.657462
0.656586
0.0227892
-0.0187056
-0.510694
0.50661
0.0140658
-0.0089956
-0.322054
0.316983
0.00517668
-0.00218575
-0.146216
0.143225
0.000595872
-0.0237312
0.0231354
-0.0284166
0.0284648
-4.82199e-05
-0.000409062
0.00126766
-0.225432
0.224574
-0.00274914
0.00419627
-0.398106
0.396659
-0.00527719
0.00538975
-0.551932
0.551819
-0.00451767
0.00313787
-0.671901
0.673281
-0.0011762
-0.000834654
-0.791984
0.793995
0.00319627
-0.00545488
-0.936528
0.938786
0.00802072
-0.0104225
-1.11161
1.11401
0.0130878
-0.0155083
-1.32268
1.3251
0.0180856
-0.0203035
-1.57754
1.57975
0.0221731
-0.0236972
-1.57314
1.57466
0.0247068
-0.0254899
-1.31267
1.31345
0.0259973
-0.0263839
-1.09969
1.10008
0.0266251
-0.0268512
-0.925378
0.925604
0.0270942
-0.0272899
-0.78328
0.783476
0.0269205
-0.0256023
-0.65539
0.654071
0.02295
-0.0185713
-0.502495
0.498116
0.0138657
-0.00886854
-0.312036
0.307039
0.00513274
-0.002191
-0.140311
0.137369
0.000606264
-0.0225577
0.0219514
-0.0285798
0.0287494
-0.000169627
0.000544177
-0.000333344
-0.224027
0.223816
-0.000373891
0.00119281
-0.395544
0.394725
-0.00181093
0.00171024
-0.55198
0.552081
-0.000733946
-0.000746485
-0.674884
0.676365
0.00282251
-0.00496704
-0.79599
0.798135
0.00749049
-0.00989923
-0.940917
0.943326
0.0126181
-0.0151353
-1.1163
1.11882
0.0178864
-0.0203358
-1.32741
1.32986
0.0228752
-0.0249778
-1.58183
1.58393
0.0266481
-0.0279087
-1.57602
1.57728
0.0286496
-0.0291139
-1.31412
1.31459
0.0293251
-0.0293994
-1.10037
1.10045
0.0293595
-0.0292916
-0.92577
0.925702
0.0292743
-0.0291149
-0.783311
0.783151
0.0284373
-0.0266002
-0.652476
0.650639
0.0235009
-0.0187821
-0.493723
0.489004
0.0139559
-0.00894762
-0.302141
0.297133
0.00521465
-0.00225079
-0.134479
0.131515
0.000631523
-0.0213598
0.0207283
-0.0289994
0.029319
-0.000319613
0.00161684
-0.00206066
-0.22395
0.224394
0.00222604
-0.00215949
-0.394255
0.394189
0.00216352
-0.00259881
-0.552569
0.553005
0.00374682
-0.00535303
-0.678103
0.679709
0.00758532
-0.00991195
-0.800264
0.802591
0.0126596
-0.0152697
-0.945619
0.948229
0.0181879
-0.0208544
-1.12123
1.12389
0.0237215
-0.0262201
-1.3322
1.33469
0.0287308
-0.0307112
-1.58589
1.58787
0.0321613
-0.0330959
-1.57833
1.57927
0.0335223
-0.0336109
-1.31491
1.31499
0.0334826
-0.0331988
-1.10039
1.10011
0.0328489
-0.0324486
-0.925528
0.925127
0.0321406
-0.0315487
-0.782549
0.781957
0.0304424
-0.0280087
-0.648587
0.646154
0.0244356
-0.0193483
-0.484307
0.47922
0.0143418
-0.00923084
-0.292203
0.287092
0.00541928
-0.00236327
-0.128579
0.125523
0.000670868
-0.0201084
0.0194375
-0.0297081
0.0302043
-0.000496164
0.00292122
-0.00415066
-0.225247
0.226477
0.00523033
-0.00598582
-0.394477
0.395233
0.0067284
-0.00762414
-0.553975
0.554871
0.00906895
-0.0109138
-0.681674
0.683518
0.0134125
-0.0159827
-0.804907
0.807478
0.0189883
-0.0218173
-0.950698
0.953527
0.0249566
-0.0277996
-1.12644
1.12928
0.0308146
-0.033384
-1.33707
1.33964
0.0358732
-0.0377101
-1.58967
1.59151
0.0389149
-0.039502
-1.57996
1.58055
0.0395636
-0.0392341
-1.31489
1.31456
0.0386969
-0.037973
-1.09962
1.0989
0.0372347
-0.0364354
-0.924546
0.923747
0.0357921
-0.0347043
-0.780844
0.779757
0.0331142
-0.0300488
-0.643589
0.640524
0.0259327
-0.0203765
-0.474166
0.46861
0.0150841
-0.00975155
-0.28203
0.276697
0.00576459
-0.00253597
-0.122467
0.119239
0.000726742
-0.0187749
0.0180481
-0.0307718
0.0314882
-0.000716431
0.00444022
-0.00658164
-0.228135
0.230277
0.00874512
-0.0104078
-0.396404
0.398066
0.0119731
-0.0134174
-0.556453
0.557897
0.0152539
-0.0174044
-0.685806
0.687956
0.0202498
-0.0231461
-0.810035
0.812932
0.0265152
-0.029669
-0.956228
0.959381
0.0331404
-0.0362449
-1.13202
1.13512
0.0394737
-0.0421447
-1.34209
1.34476
0.0446093
-0.0462754
-1.59314
1.59481
0.0471725
-0.0473478
-1.58086
1.58104
0.0469672
-0.0461662
-1.31398
1.31318
0.0451809
-0.0439716
-1.09789
1.09668
0.0428024
-0.041545
-0.922683
0.921425
0.040436
-0.0388088
-0.778113
0.776485
0.0365991
-0.0327904
-0.637365
0.633556
0.0280264
-0.0218911
-0.463091
0.456955
0.0161998
-0.0105137
-0.271381
0.265694
0.00624588
-0.0027617
-0.115984
0.1125
0.00079497
-0.0173275
0.0165325
-0.0322789
0.0332869
-0.00100796
0.00635314
-0.00958202
-0.232855
0.236084
0.012997
-0.015719
-0.400265
0.402987
0.018233
-0.0203339
-0.560202
0.562302
0.0226773
-0.0252286
-0.690629
0.693181
0.0285376
-0.0318771
-0.815824
0.819164
0.0357397
-0.0393265
-0.962436
0.966023
0.0432245
-0.0466462
-1.13814
1.14156
0.0501146
-0.0528801
-1.34729
1.35005
0.0552897
-0.0567334
-1.59623
1.59767
0.057256
-0.0569219
-1.58087
1.58054
0.056043
-0.0546758
-1.31202
1.31065
0.0531921
-0.0514402
-1.09511
1.09335
0.0497933
-0.0480023
-0.919799
0.918008
0.046333
-0.0440617
-0.774264
0.771993
0.0411078
-0.0364287
-0.629674
0.624995
0.0309067
-0.0240428
-0.450865
0.444001
0.0177896
-0.0115722
-0.25998
0.253762
0.0068878
-0.00304562
-0.108958
0.105116
0.000874771
-0.0157432
0.0148684
-0.0343619
0.035761
-0.00139911
0.00880165
-0.0133403
-0.239715
0.244254
0.0182162
-0.022154
-0.40642
0.410357
0.0257924
-0.0287358
-0.565542
0.568486
0.0318206
-0.0349855
-0.696391
0.699556
0.0389623
-0.042884
-0.8225
0.826422
0.0473402
-0.0514162
-0.969509
0.973585
0.0557728
-0.0595183
-1.14487
1.14861
0.0632112
-0.066036
-1.35264
1.35547
0.0683176
-0.0694418
-1.59882
1.59994
0.0694742
-0.0685041
-1.57979
1.57882
0.0670059
-0.0649469
-1.30881
1.30676
0.0628748
-0.060518
-1.09112
1.08876
0.0583364
-0.0559899
-0.915749
0.913402
0.0537085
-0.0507354
-0.769094
0.766121
0.046958
-0.0412729
-0.620274
0.614589
0.0348206
-0.0270036
-0.437171
0.429354
0.0199698
-0.0129902
-0.24746
0.24048
0.00771806
-0.00339462
-0.101177
0.0968538
0.00096642
-0.0139999
0.0130335
-0.0372055
0.0391612
-0.00195565
0.0121133
-0.0182981
-0.249144
0.255329
0.024906
-0.0302438
-0.4153
0.420638
0.0351967
-0.0391786
-0.572913
0.576895
0.0432358
-0.0472458
-0.703544
0.707554
0.0521231
-0.0567829
-0.83034
0.835
0.0619472
-0.066577
-0.977563
0.982192
0.0714273
-0.0754953
-1.15222
1.15629
0.0793661
-0.0821632
-1.35805
1.36085
0.0841708
-0.0848039
-1.60067
1.6013
0.0841844
-0.0824241
-1.57736
1.5756
0.0801705
-0.0772844
-1.30414
1.30125
0.0744944
-0.0714373
-1.08575
1.08269
0.0687041
-0.0657946
-0.910469
0.907559
0.0628587
-0.0591031
-0.762487
0.758732
0.0543855
-0.0475078
-0.608874
0.601997
0.0399112
-0.0308727
-0.421566
0.412528
0.0227891
-0.0147716
-0.233354
0.225336
0.00872454
-0.00379914
-0.092399
0.0874736
0.00106684
-0.012075
0.0110082
-0.0411174
0.0439246
-0.00280726
0.0169051
-0.0252487
-0.261801
0.270145
0.0339817
-0.0409876
-0.427497
0.434503
0.047481
-0.0526663
-0.582761
0.587946
0.0579536
-0.0630596
-0.712533
0.717639
0.0690128
-0.074533
-0.83964
0.845161
0.080509
-0.0857424
-0.986729
0.991963
0.0910761
-0.0953877
-1.16016
1.16447
0.0992815
-0.10186
-1.3633
1.36587
0.103356
-0.103272
-1.60141
1.60132
0.101774
-0.099013
-1.57326
1.57049
0.0958653
-0.0920483
-1.29776
1.29394
0.0884732
-0.084633
-1.07883
1.07499
0.0812587
-0.0776795
-0.903817
0.900238
0.0740686
-0.0693648
-0.754175
0.749471
0.0635205
-0.0552263
-0.595052
0.586758
0.0462381
-0.0356443
-0.403521
0.392927
0.0261843
-0.016831
-0.217136
0.207783
0.00983825
-0.00422416
-0.0824092
0.0767951
0.00116538
-0.00995701
0.00879164
-0.0466517
0.050902
-0.0042503
0.0243887
-0.0356852
-0.278783
0.29008
0.0471894
-0.0564224
-0.444021
0.453254
0.0647946
-0.0713843
-0.5956
0.60219
0.0781802
-0.0847053
-0.723703
0.730228
0.0918397
-0.0982082
-0.850643
0.857011
0.104906
-0.110577
-0.997035
1.00271
0.116114
-0.120346
-1.16843
1.17267
0.123851
-0.125813
-1.36789
1.36986
0.126356
-0.125162
-1.6005
1.5993
0.12245
-0.118423
-1.56698
1.56295
0.114207
-0.109329
-1.28944
1.28456
0.104878
-0.100187
-1.07027
1.06558
0.0961256
-0.0917477
-0.895501
0.891123
0.0873709
-0.0815232
-0.743773
0.737925
0.074345
-0.0643511
-0.57829
0.568296
0.0536495
-0.0411034
-0.382343
0.369797
0.02993
-0.0189835
-0.198295
0.187348
0.0109314
-0.0046084
-0.0710973
0.0647743
0.00124342
-0.00765793
0.00641451
-0.054867
0.0621834
-0.00731638
0.0377705
-0.0534402
-0.302216
0.317886
0.0688284
-0.0810244
-0.46642
0.478616
0.0913963
-0.0994063
-0.611895
0.619905
0.107805
-0.115598
-0.737403
0.745195
0.123665
-0.130478
-0.863166
0.869978
0.137302
-0.14279
-1.00794
1.01343
0.147828
-0.151325
-1.17622
1.17972
0.153762
-0.154491
-1.37094
1.37166
0.153475
-0.150663
-1.59706
1.59425
0.146334
-0.140724
-1.55797
1.55235
0.135201
-0.12907
-1.27887
1.27274
0.123624
-0.118006
-1.05989
1.05427
0.113232
-0.10807
-0.885404
0.880242
0.10285
-0.095602
-0.730826
0.723578
0.0867519
-0.0745552
-0.557868
0.545672
0.0616742
-0.0468177
-0.357175
0.342319
0.0337151
-0.0210614
-0.176484
0.16383
0.0119155
-0.00491541
-0.05856
0.0515599
0.00128454
-0.00523355
0.003949
-0.0690393
0.073098
-0.00405876
0.0287387
-0.0422648
-0.336102
0.349628
0.0558827
-0.0669147
-0.495993
0.507025
0.0767876
-0.0861191
-0.63144
0.640772
0.0966108
-0.105927
-0.752676
0.761992
0.116202
-0.125298
-0.875947
0.885043
0.134862
-0.143218
-1.01796
1.02631
0.151714
-0.158728
-1.18207
1.18908
0.16528
-0.169981
-1.37115
1.37586
0.173301
-0.174248
-1.59012
1.59107
0.172744
-0.169263
-1.54555
1.54207
0.164775
-0.158971
-1.26564
1.25984
0.153515
-0.147189
-1.04753
1.0412
0.141854
-0.135937
-0.873365
0.867448
0.129517
-0.119491
-0.714675
0.704649
0.106748
-0.0897071
-0.532659
0.515619
0.0723623
-0.0528172
-0.32713
0.307585
0.0365064
-0.0217148
-0.151635
0.136843
0.0116976
-0.00458184
-0.0452103
0.0380945
0.00111726
-0.00280051
0.00168325
-0.0802038
0.0783027
0.00190112
0.00700449
-0.0158255
-0.366017
0.374838
0.0261285
-0.0339669
-0.522789
0.530627
0.0419195
-0.0499723
-0.652435
0.660488
0.0596291
-0.0684317
-0.771036
0.779839
0.0776796
-0.0860668
-0.893615
0.902002
0.0948529
-0.102208
-1.03437
1.04172
0.109882
-0.11587
-1.1959
1.20188
0.121403
-0.125062
-1.38022
1.38388
0.126988
-0.126721
-1.59113
1.59086
0.124004
-0.119296
-1.53771
1.533
0.113544
-0.106394
-1.2534
1.24625
0.0995695
-0.0917827
-1.03371
1.02592
0.0844964
-0.0763041
-0.857675
0.849483
0.0686557
-0.0597754
-0.690563
0.681682
0.0501696
-0.0384812
-0.496607
0.484918
0.027827
-0.0177184
-0.287792
0.277683
0.0107828
-0.00563139
-0.12279
0.117639
0.00273164
-0.0010058
-0.0315062
0.0297804
0.000270809
-0.000569699
0.00029889
-0.0815245
0.0786336
0.00289088
-0.00200479
-0.00302551
-0.386121
0.391151
0.00995785
-0.0157709
-0.54255
0.548363
0.0218378
-0.0287389
-0.670412
0.677313
0.0370601
-0.0446858
-0.787785
0.79541
0.0529552
-0.0603116
-0.90968
0.917036
0.0677992
-0.0744435
-1.04893
1.05557
0.0811838
-0.0865342
-1.20747
1.21282
0.0910202
-0.0937101
-1.38688
1.38957
0.0948722
-0.0936492
-1.5898
1.58857
0.089944
-0.0842194
-1.52747
1.52175
0.0776665
-0.0699055
-1.2387
1.23094
0.0622268
-0.0538694
-1.0172
1.00885
0.0462
-0.0378518
-0.839591
0.831243
0.0306038
-0.0228332
-0.668894
0.661124
0.0153879
-0.00728986
-0.471288
0.46319
0.00178825
0.00156765
-0.266612
0.263256
-0.00267636
0.00250903
-0.111505
0.111672
-0.00173556
0.000775587
-0.0276174
0.0285774
-0.000149284
-3.45559e-05
0.00018384
-0.0802379
0.0775244
0.00271351
-0.00544233
0.00305479
-0.399451
0.401838
0.00133252
-0.00576354
-0.55733
0.561761
0.0109548
-0.0167422
-0.685196
0.690984
0.023858
-0.0304337
-0.802456
0.809032
0.0375673
-0.043958
-0.923915
0.930306
0.0508711
-0.0566236
-1.06185
1.0676
0.0626518
-0.0669828
-1.21781
1.22214
0.0708704
-0.0730546
-1.39204
1.39422
0.0735333
-0.0715382
-1.58682
1.58482
0.067528
-0.06161
-1.51531
1.50939
0.0549727
-0.0468882
-1.22283
1.21474
0.0393714
-0.0313008
-1.00005
0.991984
0.0237976
-0.0159101
-0.821855
0.813967
0.00861447
-0.0014334
-0.649553
0.642372
-0.00447339
0.00947877
-0.45351
0.448505
-0.0114045
0.0109352
-0.257243
0.257712
-0.00923446
0.00658196
-0.110494
0.113147
-0.00418802
0.0018809
-0.0288464
0.0311535
-0.000504614
-0.000320868
0.000825482
-0.0787624
0.0763896
0.00237272
-0.00641966
0.00554952
-0.40836
0.40923
-0.0022942
-0.000942024
-0.569261
0.572498
0.00523102
-0.010501
-0.697591
0.702861
0.0165063
-0.0223404
-0.814955
0.820789
0.0286101
-0.0342671
-0.936317
0.941974
0.0403323
-0.0455829
-1.07328
1.07853
0.0508181
-0.0549085
-1.22638
1.23047
0.0583201
-0.0601696
-1.39608
1.39793
0.0604407
-0.0584759
-1.58272
1.58076
0.0547602
-0.0492066
-1.50299
1.49744
0.0432338
-0.0360895
-1.2069
1.19975
0.0292364
-0.0214919
-0.983675
0.975931
0.0141991
-0.00602847
-0.804793
0.796622
-0.00136992
0.00836114
-0.631922
0.624931
-0.0132024
0.0164833
-0.44105
0.437769
-0.0169265
0.0148046
-0.254715
0.256837
-0.0118796
0.00839147
-0.114355
0.117843
-0.00529702
0.00239753
-0.0327766
0.0356761
-0.000696614
-0.0012387
0.00193531
-0.0774437
0.0754277
0.00201594
-0.00621352
0.00578889
-0.414537
0.414961
-0.00384035
0.00115904
-0.578526
0.581207
0.00307041
-0.00762786
-0.708175
0.712732
0.0128696
-0.018014
-0.825876
0.83102
0.0236898
-0.0288515
-0.947352
0.952514
0.0345201
-0.0392296
-1.08356
1.08827
0.0440518
-0.0478357
-1.23432
1.23811
0.050964
-0.0526978
-1.39959
1.40133
0.0530459
-0.0518064
-1.57891
1.57767
0.0487103
-0.0442058
-1.49187
1.48736
0.0390988
-0.0328228
-1.19283
1.18655
0.0267978
-0.0192973
-0.968089
0.960589
0.0120025
-0.00384042
-0.787518
0.779356
-0.00347366
0.0103075
-0.615284
0.60845
-0.0147118
0.017387
-0.431891
0.429216
-0.0172507
0.0149308
-0.255343
0.257663
-0.0119867
0.00840959
-0.119881
0.123458
-0.00527827
0.00242521
-0.037644
0.0404971
-0.000724675
-0.00241638
0.00314106
-0.0764828
0.0749219
0.00156098
-0.00530951
0.00518426
-0.419193
0.419318
-0.0035702
0.00148905
-0.586732
0.588813
0.00253597
-0.00672468
-0.717468
0.721656
0.0117795
-0.0162997
-0.83581
0.84033
0.0213893
-0.0260567
-0.9577
0.962367
0.0315131
-0.0358672
-1.09304
1.0974
0.0402406
-0.0439133
-1.24175
1.24542
0.0473302
-0.049121
-1.40317
1.40496
0.0498792
-0.0490623
-1.57628
1.57546
0.0469204
-0.0429286
-1.48299
1.479
0.0386112
-0.0330505
-1.18034
1.17478
0.0272586
-0.0201845
-0.953045
0.945971
0.0129998
-0.00489589
-0.770352
0.762248
-0.00180383
0.00806552
-0.599715
0.593454
-0.0119544
0.0140429
-0.4242
0.422112
-0.0141753
0.0125517
-0.256743
0.258366
-0.0101029
0.00707675
-0.125273
0.128299
-0.00444231
0.00205581
-0.0422084
0.0445949
-0.000625518
-0.00354266
0.00416818
-0.0760252
0.0748008
0.00122445
-0.00426382
0.00425936
-0.422936
0.42294
-0.00280095
0.000794575
-0.593979
0.595986
0.00312406
-0.00694836
-0.72596
0.729784
0.0113676
-0.0157935
-0.844826
0.849252
0.0205685
-0.0254048
-0.966881
0.971717
0.0301661
-0.0343576
-1.10186
1.10605
0.0388903
-0.0423835
-1.24901
1.2525
0.045453
-0.0478242
-1.40676
1.40913
0.0490232
-0.0487682
-1.57487
1.57462
0.0470395
-0.0437754
-1.47534
1.47207
0.0398062
-0.0345032
-1.16892
1.16362
0.0289875
-0.0221591
-0.938636
0.931808
0.0153747
-0.00801766
-0.753872
0.746515
0.00162184
0.00395793
-0.585728
0.580148
-0.0074101
0.009378
-0.41767
0.415702
-0.00977699
0.00872073
-0.257322
0.258378
-0.007083
0.00498962
-0.129328
0.131422
-0.00316909
0.00149121
-0.0457425
0.0474204
-0.000474813
-0.00443068
0.00490549
-0.0760767
0.075054
0.00102274
-0.00304294
0.00281151
-0.426291
0.426522
-0.00152796
-0.000507614
-0.600692
0.602728
0.00416101
-0.0078937
-0.733986
0.737719
0.0121799
-0.0162413
-0.853487
0.857549
0.0211559
-0.0252214
-0.976005
0.98007
0.0299472
-0.0339601
-1.1104
1.11441
0.0383981
-0.0421297
-1.25601
1.25974
0.0455694
-0.0478416
-1.41134
1.41361
0.0495149
-0.0497437
-1.57438
1.5746
0.0486401
-0.0455732
-1.46869
1.46562
0.0418755
-0.0367915
-1.15832
1.15324
0.0315736
-0.025132
-0.924716
0.918274
0.0190513
-0.0123936
-0.738871
0.732213
0.00679251
-0.00171117
-0.573532
0.56845
-0.00165098
0.00357882
-0.41134
0.409412
-0.00434519
0.00409933
-0.256838
0.257084
-0.00345374
0.00240725
-0.131564
0.132611
-0.0015112
0.000745266
-0.0477961
0.0485621
-0.000250401
-0.00500439
0.00525479
-0.0763882
0.0756759
0.000712277
-0.00195445
0.0013282
-0.42972
0.430347
-0.000254671
-0.00202403
-0.606627
0.608906
0.00530724
-0.00892724
-0.741546
0.745166
0.0130599
-0.0172604
-0.86148
0.865681
0.0215673
-0.0257789
-0.984346
0.988557
0.0304523
-0.0342559
-1.11885
1.12265
0.0387973
-0.0425196
-1.2633
1.26702
0.0460783
-0.0489323
-1.41633
1.41918
0.0511242
-0.0515962
-1.57489
1.57536
0.0506161
-0.0480575
-1.46265
1.46009
0.0447155
-0.0398624
-1.14795
1.1431
0.0348924
-0.0291642
-0.911771
0.906043
0.0233617
-0.0176056
-0.725347
0.719591
0.0126519
-0.00794971
-0.562838
0.558136
0.00475334
-0.00231872
-0.404987
0.402552
0.00104246
-0.000324752
-0.254952
0.254234
5.21645e-05
7.13445e-05
-0.131727
0.131603
-0.000165686
0.000176425
-0.0482345
0.0482237
-0.000100844
-0.00516984
0.00527068
-0.077099
0.0765339
0.000565141
-0.00103172
0.000531047
-0.433325
0.433826
0.0011803
-0.00326867
-0.612731
0.61482
0.00668802
-0.0101823
-0.748624
0.752119
0.0141579
-0.0179553
-0.869551
0.873349
0.0223694
-0.026252
-0.992772
0.996655
0.0308601
-0.0350904
-1.1269
1.13113
0.0392923
-0.0433676
-1.27081
1.27488
0.0473775
-0.050343
-1.42197
1.42493
0.0528784
-0.0540329
-1.57603
1.57718
0.0533414
-0.0512226
-1.45732
1.4552
0.0479624
-0.0435137
-1.13822
1.13378
0.0390136
-0.0336636
-0.899959
0.894609
0.0285351
-0.0232632
-0.713378
0.708106
0.0187092
-0.0141427
-0.552789
0.548222
0.0107313
-0.00791529
-0.398278
0.395462
0.0058793
-0.004292
-0.251353
0.249766
0.00303602
-0.00182786
-0.129805
0.128596
0.000914583
-0.000253155
-0.0471711
0.0465096
5.17131e-06
-0.00497254
0.00496737
-0.0780618
0.0776725
0.00038936
-5.33177e-05
-0.000670185
-0.436991
0.437715
0.00225168
-0.0046161
-0.618378
0.620742
0.00793081
-0.0112492
-0.755454
0.758773
0.0152868
-0.0189151
-0.877115
0.880743
0.0231527
-0.0271386
-1.00101
1.00499
0.0316393
-0.0358378
-1.13522
1.13942
0.0402742
-0.0443961
-1.2789
1.28302
0.0486074
-0.0523037
-1.4282
1.43189
0.055223
-0.0565644
-1.57824
1.57958
0.0564215
-0.0544911
-1.45291
1.45097
0.0517138
-0.0477917
-1.12924
1.12532
0.0434507
-0.0385205
-0.889029
0.884099
0.0338119
-0.0287885
-0.702482
0.697458
0.0245554
-0.0200112
-0.543314
0.53877
0.0164539
-0.0130091
-0.390966
0.387521
0.0103708