/*--------------------------------*- C++ -*----------------------------------*\
| =========                 |                                                 |
| \\      /  F ield         | OpenFOAM: The Open Source CFD Toolbox           |
|  \\    /   O peration     | Version:  4.0                                   |
|   \\  /    A nd           | Web:      www.OpenFOAM.org                      |
|    \\/     M anipulation  |                                                 |
\*---------------------------------------------------------------------------*/
FoamFile
{
    version     2.0;
    format      ascii;
    class       volVectorField;
    location    "42";
    object      U;
}
// * * * * * * * * * * * * * * * * * * * * * * * * * * * * * * * * * * * * * //

dimensions      [0 1 -1 0 0 0 0];

internalField   nonuniform List<vector> 
8800
(
(0.980151 -0.091521 0)
(1.00234 -0.0587241 0)
(0.999601 -0.0321248 0)
(0.999993 -0.0165166 0)
(1.00006 -0.00883217 0)
(1.00006 -0.00508474 0)
(1.00004 -0.00299085 0)
(1.00002 -0.00169223 0)
(0.999997 -0.000796551 0)
(1.00006 -9.99842e-05 0)
(0.99999 0.000603769 0)
(0.999998 0.00135473 0)
(1.00001 0.00238307 0)
(1.00002 0.00399359 0)
(1.00003 0.0067453 0)
(0.999986 0.0120481 0)
(0.999792 0.0230944 0)
(0.999033 0.0431583 0)
(1.00723 0.0790275 0)
(0.775023 0.0478396 0)
(0.358978 -0.014749 0)
(1.04649 -0.0724918 0)
(1.08848 -0.0660288 0)
(1.04945 -0.0509222 0)
(1.02554 -0.0377009 0)
(1.01271 -0.0258923 0)
(1.00654 -0.0167051 0)
(1.00361 -0.010234 0)
(1.00218 -0.00561415 0)
(1.00151 -0.00203006 0)
(1.00138 0.00117703 0)
(1.00173 0.00448081 0)
(1.0027 0.0083692 0)
(1.00473 0.0136901 0)
(1.00896 0.0213822 0)
(1.01794 0.0318836 0)
(1.03579 0.0446593 0)
(1.0674 0.0581034 0)
(1.0947 0.0699648 0)
(0.845644 0.0555056 0)
(0.217765 -0.00138163 0)
(1.07567 -0.0506652 0)
(1.09941 -0.048951 0)
(1.06438 -0.0400354 0)
(1.03987 -0.0325743 0)
(1.02376 -0.025363 0)
(1.01399 -0.0181629 0)
(1.0085 -0.0115588 0)
(1.00564 -0.00581536 0)
(1.00447 -0.000537163 0)
(1.00479 0.00456577 0)
(1.00664 0.00984789 0)
(1.01056 0.0158217 0)
(1.01788 0.0225943 0)
(1.03049 0.0297168 0)
(1.05048 0.0368124 0)
(1.08003 0.044591 0)
(1.10566 0.0519214 0)
(0.943297 0.0410032 0)
(0.217219 0.00140424 0)
(0.176608 -0.0006294 0)
(1.01936 -0.0354798 0)
(1.1057 -0.041435 0)
(1.07796 -0.0364234 0)
(1.05241 -0.0303799 0)
(1.03517 -0.0245112 0)
(1.02332 -0.0187371 0)
(1.01552 -0.012756 0)
(1.01092 -0.00667735 0)
(1.0089 -0.000456391 0)
(1.00943 0.00568945 0)
(1.01252 0.0116006 0)
(1.01847 0.017376 0)
(1.02805 0.0229695 0)
(1.04226 0.0285416 0)
(1.06309 0.0343331 0)
(1.09387 0.0402224 0)
(1.09445 0.0417549 0)
(0.830275 0.0227654 0)
(0.175674 0.000647271 0)
(0.154682 -0.00046329 0)
(0.958092 -0.0257113 0)
(1.10436 -0.0351513 0)
(1.08804 -0.0327112 0)
(1.06119 -0.0282101 0)
(1.04314 -0.0232608 0)
(1.03077 -0.0179855 0)
(1.02219 -0.0124661 0)
(1.01665 -0.00657827 0)
(1.01402 -0.000143793 0)
(1.01467 0.00630361 0)
(1.01846 0.0121692 0)
(1.02524 0.0174884 0)
(1.03537 0.0225157 0)
(1.05012 0.0273667 0)
(1.07207 0.0318236 0)
(1.10103 0.0357102 0)
(1.06976 0.033932 0)
(0.742693 0.0144356 0)
(0.153287 0.000483371 0)
(0.139979 -0.000335287 0)
(0.901013 -0.0193503 0)
(1.09672 -0.0302687 0)
(1.09615 -0.0294059 0)
(1.06887 -0.0256352 0)
(1.05002 -0.0215737 0)
(1.03707 -0.0169083 0)
(1.02811 -0.0116847 0)
(1.02219 -0.00598961 0)
(1.01923 0.000336726 0)
(1.01987 0.00668552 0)
(1.02389 0.0123258 0)
(1.03091 0.0173203 0)
(1.04141 0.0218185 0)
(1.05681 0.0257842 0)
(1.07962 0.0293211 0)
(1.10339 0.0320526 0)
(1.03806 0.0280712 0)
(0.676001 0.010281 0)
(0.138019 0.000359068 0)
(0.129219 -0.000254058 0)
(0.851051 -0.0149566 0)
(1.0843 -0.0261793 0)
(1.10177 -0.0265512 0)
(1.07563 -0.0232556 0)
(1.05628 -0.0196334 0)
(1.04292 -0.0154756 0)
(1.0336 -0.0106515 0)
(1.0274 -0.00519441 0)
(1.02423 0.000937839 0)
(1.02478 0.00706983 0)
(1.02882 0.0124217 0)
(1.036 0.016987 0)
(1.04681 0.0208849 0)
(1.06258 0.0242606 0)
(1.08584 0.027322 0)
(1.10268 0.0291636 0)
(1.00353 0.0234973 0)
(0.624136 0.00786768 0)
(0.12657 0.000282871 0)
(0.12101 -0.000195557 0)
(0.808452 -0.0117749 0)
(1.06889 -0.0225983 0)
(1.10522 -0.0239448 0)
(1.08182 -0.0211039 0)
(1.06201 -0.0177146 0)
(1.04837 -0.0138541 0)
(1.03879 -0.0093695 0)
(1.03234 -0.00420561 0)
(1.02896 0.00166747 0)
(1.02936 0.00750595 0)
(1.03338 0.0124905 0)
(1.04063 0.0165947 0)
(1.05155 0.0200237 0)
(1.0676 0.0230088 0)
(1.09126 0.0257748 0)
(1.09912 0.0267212 0)
(0.968672 0.0198828 0)
(0.582624 0.00628674 0)
(0.117523 0.000230564 0)
(0.114636 -0.000151141 0)
(0.772505 -0.00939111 0)
(1.0519 -0.0194403 0)
(1.10746 -0.0215455 0)
(1.08759 -0.0191147 0)
(1.06737 -0.0159067 0)
(1.05348 -0.0122195 0)
(1.04372 -0.00794592 0)
(1.03705 -0.00304554 0)
(1.03342 0.00254335 0)
(1.03365 0.00805965 0)
(1.03758 0.0126562 0)
(1.04479 0.01637 0)
(1.05574 0.0194352 0)
(1.07203 0.0220782 0)
(1.09542 0.0245004 0)
(1.09283 0.0246559 0)
(0.934862 0.0170552 0)
(0.548479 0.0051915 0)
(0.110131 0.000193744 0)
(0.109652 -0.000116032 0)
(0.7423 -0.00754152 0)
(1.03443 -0.016633 0)
(1.10871 -0.0192671 0)
(1.09302 -0.0171551 0)
(1.07251 -0.0140541 0)
(1.05836 -0.0104903 0)
(1.04842 -0.00638569 0)
(1.04155 -0.0016978 0)
(1.03768 0.00360565 0)
(1.03767 0.0087673 0)
(1.0414 0.0129768 0)
(1.0485 0.0163014 0)
(1.05947 0.0190154 0)
(1.07598 0.0213713 0)
(1.09835 0.0234571 0)
(1.08419 0.0228901 0)
(0.902749 0.0148594 0)
(0.519678 0.00441137 0)
(0.103909 0.000167706 0)
(0.105766 -8.70331e-05 0)
(0.717027 -0.00604742 0)
(1.0173 -0.0141042 0)
(1.10911 -0.0170706 0)
(1.09834 -0.0152695 0)
(1.07754 -0.0122112 0)
(1.06309 -0.00871127 0)
(1.05293 -0.00470174 0)
(1.04585 -0.000162052 0)
(1.0417 0.00487786 0)
(1.04138 0.00968483 0)
(1.04486 0.0135357 0)
(1.0518 0.0165318 0)
(1.06277 0.0189348 0)
(1.07953 0.0210043 0)
(1.10001 0.0226926 0)
(1.07365 0.0214355 0)
(0.872505 0.0131838 0)
(0.494792 0.00385684 0)
(0.0985164 0.000150524 0)
(0.102788 -6.20184e-05 0)
(0.696062 -0.00479081 0)
(1.00113 -0.011781 0)
(1.10873 -0.0148881 0)
(1.1034 -0.0133306 0)
(1.08251 -0.0102862 0)
(1.06775 -0.00680323 0)
(1.05734 -0.00284491 0)
(1.04997 0.00157647 0)
(1.04548 0.00640872 0)
(1.04478 0.0109144 0)
(1.04797 0.0143949 0)
(1.05472 0.0170187 0)
(1.06568 0.0190916 0)
(1.0826 0.0208906 0)
(1.10067 0.0221685 0)
(1.06151 0.0202574 0)
(0.844062 0.0119211 0)
(0.472781 0.0034651 0)
(0.0937025 0.000139474 0)
(0.100599 -3.90414e-05 0)
(0.67895 -0.00368241 0)
(0.986427 -0.00959828 0)
(1.10786 -0.012646 0)
(1.10822 -0.0112235 0)
(1.08748 -0.00814749 0)
(1.07238 -0.00463854 0)
(1.06166 -0.000698978 0)
(1.05395 0.00363579 0)
(1.04903 0.0082719 0)
(1.04788 0.0124531 0)
(1.05069 0.0155646 0)
(1.05723 0.0178122 0)
(1.06816 0.0195297 0)
(1.08519 0.0210376 0)
(1.10033 0.0219555 0)
(1.04806 0.0193632 0)
(0.817202 0.0110004 0)
(0.452855 0.00319913 0)
(0.0892761 0.000133586 0)
(0.0991362 -1.6297e-05 0)
(0.665404 -0.0026465 0)
(0.97354 -0.007467 0)
(1.10677 -0.0102873 0)
(1.11293 -0.00896015 0)
(1.09255 -0.00586265 0)
(1.07705 -0.00226904 0)
(1.06598 0.00174024 0)
(1.05784 0.00605343 0)
(1.05236 0.0105323 0)
(1.05066 0.0144045 0)
(1.05303 0.0171278 0)
(1.05929 0.0189996 0)
(1.07021 0.0203627 0)
(1.08733 0.0215599 0)
(1.09895 0.0220324 0)
(1.03343 0.0187576 0)
(0.791611 0.0103664 0)
(0.434389 0.00303538 0)
(0.085083 0.000132519 0)
(0.0983813 7.66125e-06 0)
(0.655283 -0.00163149 0)
(0.962814 -0.00531771 0)
(1.10575 -0.00771504 0)
(1.11758 -0.00639561 0)
(1.09774 -0.00324548 0)
(1.08186 0.000488579 0)
(1.07036 0.00460114 0)
(1.06171 0.00893521 0)
(1.05559 0.0132897 0)
(1.0532 0.0168552 0)
(1.05503 0.0191724 0)
(1.06095 0.0206067 0)
(1.07174 0.0215487 0)
(1.08882 0.0223952 0)
(1.09638 0.0223818 0)
(1.01771 0.018397 0)
(0.766986 0.00997049 0)
(0.416893 0.00295156 0)
(0.0810019 0.000134366 0)
(0.0983608 2.82865e-05 0)
(0.648583 -0.000602985 0)
(0.95458 -0.00309494 0)
(1.10521 -0.00488603 0)
(1.12236 -0.00342885 0)
(1.10316 -0.000140471 0)
(1.08682 0.00376236 0)
(1.07479 0.00800393 0)
(1.0655 0.0124048 0)
(1.05858 0.0166539 0)
(1.05536 0.0198884 0)
(1.05652 0.0217546 0)
(1.06203 0.0226912 0)
(1.07274 0.023145 0)
(1.08963 0.0235836 0)
(1.09248 0.0230687 0)
(1.00094 0.0183573 0)
(0.742959 0.00981074 0)
(0.39992 0.00294972 0)
(0.0769207 0.000140617 0)
(0.0991346 6.48151e-05 0)
(0.645446 0.000469662 0)
(0.949151 -0.000709725 0)
(1.10549 -0.00174083 0)
(1.12751 -8.54664e-05 0)
(1.10888 0.00337602 0)
(1.09202 0.00754765 0)
(1.07939 0.0120378 0)
(1.06932 0.0165755 0)
(1.06141 0.0207557 0)
(1.05719 0.0236567 0)
(1.05754 0.0250371 0)
(1.06253 0.0254419 0)
(1.07309 0.0253865 0)
(1.08949 0.0253338 0)
(1.08717 0.0241601 0)
(0.982991 0.0186325 0)
(0.719133 0.00987452 0)
(0.383056 0.00302189 0)
(0.0727302 0.00015009 0)
(0.100877 9.63828e-05 0)
(0.646264 0.00167762 0)
(0.946912 0.0019036 0)
(1.10695 0.00188562 0)
(1.13308 0.00383789 0)
(1.11502 0.00756752 0)
(1.09762 0.0121167 0)
(1.08422 0.0169289 0)
(1.07316 0.0216541 0)
(1.06403 0.0257808 0)
(1.05857 0.0283085 0)
(1.05798 0.0291029 0)
(1.06236 0.0288939 0)
(1.07269 0.0282767 0)
(1.08821 0.0276324 0)
(1.08018 0.0256264 0)
(0.963742 0.0192369 0)
(0.695109 0.0101605 0)
(0.365901 0.00316622 0)
(0.0683315 0.000162452 0)
(0.10368 0.000144435 0)
(0.651437 0.00315922 0)
(0.948387 0.00488913 0)
(1.11021 0.00605333 0)
(1.13936 0.00853186 0)
(1.12175 0.0127268 0)
(1.1037 0.0176932 0)
(1.08939 0.0228655 0)
(1.07717 0.0278326 0)
(1.06659 0.0319159 0)
(1.05958 0.0340171 0)
(1.0578 0.0341782 0)
(1.06141 0.0332267 0)
(1.07142 0.031916 0)
(1.08563 0.0305831 0)
(1.07136 0.0276533 0)
(0.942992 0.0202894 0)
(0.670401 0.0107093 0)
(0.348034 0.00339248 0)
(0.0636216 0.000178497 0)
(0.107801 0.000205632 0)
(0.661382 0.00487061 0)
(0.953968 0.00837207 0)
(1.11569 0.0108732 0)
(1.14666 0.0139929 0)
(1.12919 0.0187902 0)
(1.11031 0.0243502 0)
(1.09487 0.030068 0)
(1.08114 0.0353803 0)
(1.06869 0.0394198 0)
(1.0599 0.0410047 0)
(1.05677 0.0404022 0)
(1.05944 0.0386333 0)
(1.06908 0.0365596 0)
(1.0816 0.0344453 0)
(1.06044 0.0303544 0)
(0.920304 0.0218151 0)
(0.644432 0.0115285 0)
(0.328994 0.00369462 0)
(0.058499 0.000196007 0)
(0.113604 0.000290392 0)
(0.676824 0.00700332 0)
(0.964278 0.0125774 0)
(1.1238 0.016618 0)
(1.1552 0.0205511 0)
(1.13765 0.0261598 0)
(1.11783 0.0325245 0)
(1.10099 0.0389403 0)
(1.08543 0.0446465 0)
(1.07076 0.0485894 0)
(1.05977 0.049532 0)
(1.05494 0.0480277 0)
(1.05645 0.0453491 0)
(1.06553 0.0424109 0)
(1.07598 0.0393508 0)
(1.04702 0.0338623 0)
(0.895252 0.023972 0)
(0.616502 0.0126844 0)
(0.308269 0.00408325 0)
(0.0528873 0.000213734 0)
(0.121578 0.000408119 0)
(0.698571 0.00970999 0)
(0.980112 0.0176841 0)
(1.13525 0.0235633 0)
(1.16549 0.028674 0)
(1.14745 0.03545 0)
(1.12636 0.0427783 0)
(1.10763 0.0499484 0)
(1.08968 0.0560218 0)
(1.07228 0.0597607 0)
(1.05873 0.059865 0)
(1.05199 0.057235 0)
(1.05221 0.0535021 0)
(1.06059 0.0495866 0)
(1.0685 0.0455398 0)
(1.03074 0.0384863 0)
(0.867158 0.0269367 0)
(0.585687 0.0142559 0)
(0.285223 0.00456928 0)
(0.0467103 0.000231183 0)
(0.13244 0.000581198 0)
(0.72784 0.0133436 0)
(1.00249 0.0241384 0)
(1.15091 0.0321786 0)
(1.17832 0.0388339 0)
(1.15896 0.0471803 0)
(1.13602 0.05566 0)
(1.11485 0.0636498 0)
(1.09398 0.0700256 0)
(1.07332 0.073315 0)
(1.05679 0.0722973 0)
(1.04782 0.0683024 0)
(1.04658 0.0632635 0)
(1.05415 0.058302 0)
(1.05895 0.053193 0)
(1.0111 0.0444196 0)
(0.835171 0.0308221 0)
(0.550868 0.0162607 0)
(0.259175 0.00513943 0)
(0.0398964 0.00024781 0)
(0.147381 0.000853814 0)
(0.766472 0.0185439 0)
(1.03288 0.0327554 0)
(1.17159 0.0433771 0)
(1.19449 0.0520368 0)
(1.17257 0.0621728 0)
(1.14699 0.0719941 0)
(1.12261 0.0807965 0)
(1.09808 0.0872216 0)
(1.07355 0.0896772 0)
(1.05368 0.0871573 0)
(1.04226 0.08152 0)
(1.03943 0.0750627 0)
(1.04604 0.0687785 0)
(1.04694 0.0624594 0)
(0.987422 0.0517408 0)
(0.798316 0.035667 0)
(0.510872 0.0186231 0)
(0.229602 0.00574609 0)
(0.0324324 0.000261158 0)
(0.16852 0.00132359 0)
(0.81748 0.0264968 0)
(1.07396 0.0451795 0)
(1.19824 0.0590956 0)
(1.2144 0.0704251 0)
(1.18844 0.0822768 0)
(1.15912 0.0933533 0)
(1.13049 0.102513 0)
(1.10148 0.108315 0)
(1.07253 0.109216 0)
(1.04901 0.104597 0)
(1.03507 0.0970026 0)
(1.03063 0.088936 0)
(1.03586 0.0813178 0)
(1.03196 0.0734889 0)
(0.958867 0.0604204 0)
(0.755401 0.0413072 0)
(0.464831 0.0211568 0)
(0.196458 0.0063065 0)
(0.024426 0.000266562 0)
(0.199241 0.00237713 0)
(0.886532 0.0400391 0)
(1.12876 0.0652914 0)
(1.23132 0.0828895 0)
(1.23804 0.0970176 0)
(1.2061 0.110119 0)
(1.17167 0.121469 0)
(1.13774 0.129813 0)
(1.10356 0.133874 0)
(1.06981 0.132205 0)
(1.0425 0.124734 0)
(1.02605 0.114702 0)
(1.0201 0.104802 0)
(1.02375 0.0958425 0)
(1.01349 0.0862952 0)
(0.924275 0.0702912 0)
(0.705191 0.0473241 0)
(0.412942 0.0236562 0)
(0.160848 0.00677037 0)
(0.0162968 0.000257399 0)
(0.241105 0.00860947 5.27608e-20)
(0.97769 0.0672631 4.59567e-20)
(1.1951 0.0992652 -1.59887e-20)
(1.26832 0.118394 0)
(1.26287 0.135323 -3.99324e-34)
(1.22346 0.147865 5.8149e-21)
(1.18299 0.157683 -1.03454e-20)
(1.14316 0.163829 0)
(1.10339 0.165141 2.09398e-34)
(1.06444 0.160212 -1.25197e-20)
(1.03299 0.149493 0)
(1.01375 0.136777 -1.47256e-20)
(1.00612 0.124856 -4.33383e-20)
(1.00803 0.114841 -2.04468e-20)
(0.989421 0.103871 -6.13765e-21)
(0.87929 0.0838039 -3.64451e-21)
(0.642063 0.0551877 0)
(0.352593 0.0268424 2.5533e-21)
(0.123609 0.00789048 3.01599e-21)
(0.00861748 0.000422346 5.42738e-20)
(0.270167 0.0240321 4.02385e-20)
(1.05262 0.109831 5.21436e-22)
(1.24929 0.147894 4.34514e-21)
(1.30201 0.167171 0)
(1.28478 0.18374 -2.05667e-20)
(1.23829 0.194186 -2.31998e-20)
(1.19174 0.201763 -1.05187e-20)
(1.1459 0.205559 -3.70487e-20)
(1.10021 0.204263 0)
(1.05541 0.196382 5.34926e-20)
(1.01887 0.182763 5.28163e-20)
(0.995817 0.167722 1.56622e-20)
(0.985448 0.153809 5.68276e-20)
(0.982583 0.14115 7.95751e-20)
(0.952518 0.126673 0)
(0.819131 0.101407 1.12153e-19)
(0.568336 0.065154 1.6105e-19)
(0.290847 0.0310809 1.78974e-19)
(0.0896407 0.00909301 -2.04747e-19)
(0.00191905 0.00025794 -3.84292e-21)
(0.270928 0.0397025 0)
(1.09958 0.165211 7.47473e-21)
(1.28571 0.20783 0)
(1.32814 0.226656 -2.78846e-20)
(1.30192 0.239837 0)
(1.24943 0.24654 -4.61166e-20)
(1.19727 0.250596 2.16328e-20)
(1.14579 0.251108 -7.51208e-20)
(1.09443 0.246451 -1.56557e-21)
(1.04397 0.234947 2.78339e-20)
(1.00244 0.217759 1.1632e-19)
(0.975624 0.19982 -2.9749e-22)
(0.962054 0.18387 -4.13589e-20)
(0.954637 0.169748 -7.52675e-20)
(0.917027 0.152659 8.91865e-20)
(0.775413 0.121215 -1.57858e-19)
(0.528404 0.0774218 -2.08734e-20)
(0.267585 0.0375599 0)
(0.081618 0.011204 3.60884e-24)
(0.000557602 0.000142624 0)
(0.264568 0.0533239 1.06704e-19)
(1.12462 0.223951 -5.07903e-20)
(1.3082 0.272544 -3.73515e-20)
(1.34518 0.291357 1.3437e-20)
(1.31281 0.300407 -2.24911e-20)
(1.25591 0.30281 9.7065e-20)
(1.1992 0.302796 4.53732e-20)
(1.14279 0.299447 0)
(1.08625 0.290875 -1.40758e-19)
(1.03037 0.275265 0)
(0.984012 0.254329 -6.1309e-20)
(0.953624 0.233713 -7.52852e-20)
(0.937563 0.216246 -4.51594e-20)
(0.927234 0.201079 -5.47881e-20)
(0.8843 0.180978 0)
(0.743608 0.143741 0)
(0.510403 0.0939561 -1.36702e-19)
(0.267521 0.0481358 2.70368e-20)
(0.0870945 0.0154955 -1.58377e-20)
(0.00209543 0.000398982 -1.85166e-20)
(0.257267 0.0654442 -4.90924e-20)
(1.13554 0.282601 0)
(1.32057 0.338324 7.97451e-20)
(1.35424 0.357506 3.86719e-20)
(1.3176 0.362696 5.15206e-20)
(1.25761 0.360858 0)
(1.19733 0.356742 4.4857e-20)
(1.13679 0.349318 8.36755e-20)
(1.07568 0.336622 7.24509e-20)
(1.01496 0.316936 1.31457e-19)
(0.96422 0.292846 0)
(0.930632 0.270411 -1.627e-19)
(0.912223 0.251849 -9.77944e-20)
(0.8986 0.234767 -5.7739e-20)
(0.851946 0.210448 3.54648e-19)
(0.718463 0.168734 4.22749e-20)
(0.503492 0.11413 1.99046e-19)
(0.276178 0.0618977 -9.41015e-19)
(0.098904 0.0222244 5.58247e-19)
(0.00571701 0.00134604 -6.72806e-19)
(0.250429 0.0764409 -3.1449e-20)
(1.1376 0.33927 9.17668e-21)
(1.32563 0.403197 -9.4e-21)
(1.35703 0.423247 -4.17388e-20)
(1.31733 0.424946 -4.50285e-20)
(1.25509 0.419098 1.76622e-21)
(1.19196 0.410999 -4.85714e-20)
(1.12795 0.399509 8.68916e-20)
(1.06297 0.382761 -1.56004e-19)
(0.998144 0.359323 0)
(0.943752 0.332565 -7.38987e-20)
(0.907234 0.308512 -1.61396e-21)
(0.885863 0.288323 -1.06994e-19)
(0.867954 0.268378 0)
(0.819138 0.240119 -7.68678e-20)
(0.696362 0.19527 -1.82896e-19)
(0.499778 0.136425 4.90182e-19)
(0.286331 0.0778819 -4.82173e-19)
(0.111305 0.0305497 6.85124e-19)
(0.00969623 0.0027874 -7.11907e-19)
(0.244794 0.0866636 -4.11542e-22)
(1.13416 0.393282 -5.4472e-21)
(1.3255 0.466137 -2.97941e-20)
(1.35507 0.487353 1.78501e-20)
(1.31308 0.485996 -2.28626e-20)
(1.24915 0.476437 0)
(1.18366 0.464518 -4.58446e-20)
(1.11675 0.449103 -9.11435e-20)
(1.04853 0.428526 -8.12675e-20)
(0.980336 0.401608 0)
(0.922855 0.372135 -7.68318e-20)
(0.883548 0.345812 -9.47515e-20)
(0.858734 0.323013 1.16029e-19)
(0.836566 0.29979 -7.04079e-20)
(0.787363 0.268667 -3.35259e-19)
(0.675165 0.222153 2.00233e-19)
(0.494912 0.15957 5.99858e-20)
(0.293727 0.0945932 0)
(0.121274 0.039467 -6.62166e-19)
(0.0130384 0.00440933 -2.42771e-20)
(0.240396 0.0964092 -1.28368e-21)
(1.12739 0.444427 3.04255e-21)
(1.32164 0.526621 1.46069e-20)
(1.34958 0.549102 6.20504e-20)
(1.30578 0.545086 -8.62645e-20)
(1.2405 0.532136 9.58417e-20)
(1.17306 0.5166 9.85537e-20)
(1.10373 0.497501 -1.45591e-19)
(1.03282 0.473373 4.96419e-20)
(0.961754 0.443096 -3.23261e-19)
(0.901501 0.410484 -8.66293e-20)
(0.859436 0.381063 0)
(0.831176 0.355028 1.25689e-19)
(0.805413 0.328777 1.50391e-19)
(0.757018 0.295781 1.80114e-19)
(0.654322 0.247876 -2.17193e-19)
(0.487408 0.181945 -6.43014e-20)
(0.296544 0.11071 7.56264e-20)
(0.127454 0.0479378 0)
(0.0153756 0.00594133 -5.26073e-20)
(0.237094 0.105816 -9.2502e-21)
(1.11877 0.492811 -1.3823e-21)
(1.31526 0.584897 -1.38311e-20)
(1.34152 0.608144 3.88403e-20)
(1.29622 0.601761 -3.996e-20)
(1.22979 0.585696 -4.06414e-21)
(1.16072 0.566821 -1.07306e-19)
(1.0894 0.544363 -5.25682e-20)
(1.0162 0.516969 -1.40931e-19)
(0.94255 0.483352 2.42893e-22)
(0.879631 0.447149 -2.71282e-19)
(0.834885 0.414122 2.27735e-19)
(0.803536 0.38481 -1.37735e-19)
(0.775127 0.356154 1.6533e-19)
(0.727953 0.321967 0)
(0.632449 0.272529 -1.17445e-19)
(0.476737 0.203185 -4.81719e-22)
(0.294383 0.125353 -3.28649e-19)
(0.128961 0.055117 -4.83417e-20)
(0.01652 0.00715049 0)
(0.234742 0.115012 0)
(1.10919 0.538638 2.21938e-21)
(1.30693 0.640266 -1.7978e-20)
(1.3316 0.66431 -3.66795e-20)
(1.28498 0.655798 -4.91322e-20)
(1.21758 0.636866 0)
(1.14716 0.614962 -4.94924e-20)
(1.07416 0.58951 -1.1652e-21)
(0.998947 0.559143 3.01572e-19)
(0.922845 0.522191 -4.44217e-20)
(0.857266 0.482122 -1.95654e-19)
(0.809971 0.445332 1.18528e-19)
(0.776102 0.412925 -2.10513e-21)
(0.745974 0.382261 1.75605e-19)
(0.699989 0.34678 1.0829e-19)
(0.609785 0.295162 -2.53355e-19)
(0.462809 0.22181 3.00493e-19)
(0.287486 0.13728 8.88895e-20)
(0.126567 0.0602607 3.66583e-19)
(0.0165403 0.00786788 -9.80611e-19)
(0.233292 0.124114 -1.0158e-20)
(1.09925 0.582106 9.36e-21)
(1.29738 0.692694 -2.80668e-21)
(1.3203 0.717581 3.08311e-20)
(1.27256 0.707089 0)
(1.20433 0.685536 -4.54138e-20)
(1.13279 0.660948 1.65041e-19)
(1.05837 0.632874 1.15203e-19)
(0.981311 0.599813 0)
(0.90277 0.559583 -6.376e-19)
(0.834502 0.515582 5.28073e-19)
(0.784803 0.475078 0)
(0.748905 0.439733 1.60326e-19)
(0.717652 0.407104 -2.06782e-21)
(0.672592 0.369869 -3.45176e-19)
(0.586188 0.315296 1.35293e-19)
(0.445748 0.237323 0)
(0.276271 0.146222 4.78774e-19)
(0.120655 0.0631247 0)
(0.0154948 0.00799131 -4.62931e-19)
(0.232563 0.133201 1.43053e-20)
(1.08939 0.623371 1.81035e-20)
(1.28679 0.742283 -1.27565e-21)
(1.30804 0.767935 0)
(1.25934 0.755623 -4.33965e-20)
(1.19042 0.731708 0)
(1.11797 0.704774 -1.6396e-19)
(1.04231 0.674441 -5.40445e-20)
(0.963501 0.638961 5.33055e-20)
(0.882499 0.59559 -3.15128e-19)
(0.811479 0.547753 5.45759e-20)
(0.759472 0.503643 0)
(0.721887 0.465415 -3.42019e-19)
(0.689814 0.430649 2.07961e-21)
(0.645284 0.391166 0)
(0.561431 0.333034 1.96861e-21)
(0.425751 0.249609 4.36383e-19)
(0.261278 0.151743 -4.13274e-19)
(0.111855 0.0638567 1.21743e-19)
(0.0137645 0.00769515 0)
(0.232259 0.142138 0)
(1.07991 0.662533 2.57173e-20)
(1.27556 0.789164 1.08679e-20)
(1.29517 0.815443 -2.41172e-21)
(1.24563 0.801452 -1.60438e-20)
(1.17617 0.775425 -1.01423e-19)
(1.10298 0.746484 6.09723e-20)
(1.02621 0.714224 -6.31518e-20)
(0.945715 0.676587 2.36947e-19)
(0.862205 0.630296 -5.02804e-19)
(0.788344 0.578825 -3.57345e-21)
(0.73404 0.531204 -1.50204e-19)
(0.69495 0.490031 5.54047e-19)
(0.662205 0.452856 -2.43247e-21)
(0.617885 0.410591 -2.66916e-19)
(0.535454 0.34815 -4.77239e-19)
(0.403046 0.258522 0)
(0.242973 0.153865 0)
(0.100738 0.0624132 1.3151e-19)
(0.0116198 0.00697156 -7.70194e-20)
(0.232558 0.151068 2.46604e-20)
(1.07082 0.699496 -6.28445e-20)
(1.26396 0.833402 -1.20032e-20)
(1.28192 0.860174 0)
(1.23168 0.84465 -1.59141e-21)
(1.16182 0.816764 -9.45916e-20)
(1.08805 0.786131 1.48407e-19)
(1.01028 0.752243 2.49884e-19)
(0.928131 0.712713 3.08006e-19)
(0.842073 0.663783 -4.10569e-19)
(0.765258 0.608951 -4.52132e-19)
(0.708561 0.5579 4.01413e-19)
(0.667992 0.513618 0)
(0.634603 0.473639 -1.21101e-19)
(0.590214 0.427974 -2.88587e-19)
(0.508356 0.360397 -3.42374e-19)
(0.377981 0.26375 -4.06514e-19)
(0.222111 0.152539 1.20207e-19)
(0.087856 0.0587787 -7.07127e-20)
(0.00908853 0.00582822 2.70072e-22)
(0.232956 0.159915 0)
(1.06235 0.734709 0)
(1.25218 0.875094 2.62869e-21)
(1.26851 0.90222 0)
(1.21769 0.885318 3.96379e-20)
(1.14756 0.855818 6.5605e-20)
(1.07335 0.823772 0)
(0.994669 0.788521 2.98789e-20)
(0.910912 0.747356 5.13826e-19)
(0.822286 0.696116 -9.4291e-19)
(0.742383 0.638253 0)
(0.683094 0.583861 -2.57858e-19)
(0.640911 0.536234 -2.94883e-21)
(0.606789 0.492948 -2.37312e-21)
(0.56211 0.44316 3.08027e-19)
(0.480175 0.36957 -3.52464e-22)
(0.350661 0.265169 -8.74367e-19)
(0.199187 0.147739 2.58434e-19)
(0.0743293 0.0534601 7.63688e-20)
(0.00650601 0.00444511 0)
(0.233425 0.168606 -1.10107e-19)
(1.05426 0.768254 -4.92002e-20)
(1.24034 0.91432 -5.31372e-20)
(1.2551 0.941696 1.73359e-20)
(1.20382 0.923543 5.41832e-20)
(1.13356 0.89267 0)
(1.05902 0.859462 9.02785e-20)
(0.979508 0.823083 -6.62013e-20)
(0.8942 0.780539 3.87548e-21)
(0.803018 0.727352 6.92564e-20)
(0.719877 0.666833 5.84239e-19)
(0.657712 0.609229 -9.04507e-20)
(0.613618 0.558009 -3.40466e-19)
(0.578533 0.510785 -1.40765e-19)
(0.533362 0.455947 1.67451e-19)
(0.451 0.375341 -1.6675e-22)
(0.322123 0.262687 2.35535e-19)
(0.175555 0.139972 -5.55589e-19)
(0.0608567 0.0469205 6.56818e-19)
(0.00403116 0.00294965 9.57586e-20)
(0.233785 0.177024 4.35101e-20)
(1.04658 0.800224 -2.89518e-20)
(1.2286 0.951181 6.27121e-21)
(1.24183 0.978729 2.16082e-20)
(1.1902 0.959446 -4.6959e-21)
(1.11993 0.927408 -1.15187e-19)
(1.04516 0.893253 2.67339e-20)
(0.964901 0.855943 -2.76076e-19)
(0.878119 0.812266 -5.65842e-19)
(0.784414 0.757509 -5.61326e-19)
(0.697904 0.694766 0)
(0.632507 0.634152 -3.95898e-19)
(0.586053 0.579143 4.89739e-19)
(0.549552 0.527222 0)
(0.503656 0.466071 -3.58216e-19)
(0.420892 0.377207 2.14201e-19)
(0.29308 0.256029 -2.52918e-19)
(0.152452 0.129621 -2.98891e-19)
(0.0483394 0.039726 -5.28832e-19)
(0.00183547 0.00148053 -4.12278e-19)
(0.234481 0.185307 -5.08606e-20)
(1.03916 0.830609 3.10194e-20)
(1.21703 0.985758 6.79635e-20)
(1.22878 1.0134 3.80017e-20)
(1.17694 0.993125 1.3737e-20)
(1.10675 0.96012 -6.32483e-20)
(1.03184 0.925189 8.85988e-20)
(0.950924 0.887133 -2.83933e-19)
(0.862755 0.84256 -3.34815e-19)
(0.766602 0.786608 5.8692e-19)
(0.676612 0.722105 1.28053e-18)
(0.607603 0.65878 0)
(0.558197 0.59989 0)
(0.51952 0.54247 -1.61908e-19)
(0.47243 0.473291 0)
(0.389655 0.374285 4.60804e-19)
(0.26454 0.244385 5.44116e-19)
(0.131744 0.116813 0)
(0.0380423 0.0324765 0)
(7.23443e-05 0.000219827 4.42916e-19)
(0.234831 0.193152 5.96864e-20)
(1.03205 0.859403 4.77965e-20)
(1.20572 1.01818 5.03269e-20)
(1.21605 1.04586 -4.44472e-20)
(1.16409 1.02469 7.09071e-21)
(1.09409 0.990881 6.64929e-20)
(1.01911 0.955321 -1.21642e-19)
(0.937634 0.916672 -2.98581e-23)
(0.848189 0.871422 -5.02919e-21)
(0.749684 0.814643 -5.29797e-21)
(0.656163 0.748881 6.5891e-19)
(0.583165 0.68324 0)
(0.53012 0.620541 4.93966e-19)
(0.488138 0.556909 3.44903e-19)
(0.438793 0.477654 8.34937e-19)
(0.35644 0.365439 2.47828e-19)
(0.237341 0.225614 -2.93204e-19)
(0.117091 0.0995928 -1.72174e-19)
(0.034754 0.0244478 0)
(0.000282382 -0.00024823 4.75768e-19)
(0.235489 0.201007 -1.38375e-19)
(1.02521 0.886721 0)
(1.19467 1.0485 6.34492e-20)
(1.20367 1.07618 -4.07788e-20)
(1.15174 1.05424 4.1529e-21)
(1.08197 1.01977 -7.34282e-20)
(1.00703 0.983694 2.37455e-19)
(0.925065 0.944585 -2.32005e-20)
(0.834467 0.898859 0)
(0.733745 0.841587 -6.46928e-19)
(0.636708 0.775089 -1.43062e-18)
(0.559392 0.707641 5.82247e-20)
(0.502008 0.64138 6.79112e-19)
(0.45526 0.571086 0)
(0.401638 0.479835 5.62597e-19)
(0.318962 0.350087 0)
(0.209562 0.195441 0)
(0.111859 0.0661794 -1.86424e-19)
(0.0581478 0.0045458 0)
(0.0271365 0.0110331 1.27484e-19)
(0.235776 0.208264 -1.5786e-19)
(1.01861 0.91287 0)
(1.1839 1.07693 1.09048e-19)
(1.19163 1.1046 0)
(1.13983 1.08203 -6.98578e-21)
(1.07034 1.04707 0)
(0.995512 1.01061 1.19856e-20)
(0.91313 0.971202 3.89309e-20)
(0.821482 0.925234 4.1824e-20)
(0.718641 0.867827 -7.09252e-19)
(0.618104 0.801159 4.29889e-20)
(0.536113 0.732571 4.67252e-19)
(0.473571 0.663092 6.61581e-19)
(0.420183 0.585863 8.91091e-20)
(0.359134 0.481487 4.40218e-19)
(0.272673 0.329731 0)
(0.169837 0.152007 6.18941e-19)
(0.0877724 0.00932042 -3.62622e-19)
(0.0433312 0.044126 4.20235e-19)
(-0.0693059 0.431729 -4.95671e-19)
(0.236048 0.215326 1.32601e-19)
(1.012 0.937643 1.99956e-19)
(1.17333 1.1038 0)
(1.17979 1.13158 5.2065e-21)
(1.1282 1.10864 2.89848e-20)
(1.05896 1.07344 9.10892e-20)
(0.984276 1.03685 8.28948e-20)
(0.901439 0.997462 0)
(0.808725 0.951636 2.78264e-19)
(0.703726 0.894655 -3.71366e-20)
(0.599456 0.828534 0)
(0.512174 0.759756 0)
(0.443255 0.687405 5.90859e-19)
(0.381085 0.602561 -2.74868e-19)
(0.308278 0.485172 -4.4464e-19)
(0.2127 0.309373 0)
(0.0985845 0.143938 3.1164e-19)
(0.00594265 0.437509 -3.61064e-19)
(0.034874 1.88048 -1.98331e-19)
(0.0646622 2.80628 -2.5315e-19)
(0.236141 0.22155 -1.01846e-19)
(1.00556 0.961224 -2.60785e-19)
(1.16298 1.12909 6.72901e-20)
(1.16816 1.15696 4.89523e-20)
(1.11689 1.13384 0)
(1.04789 1.0986 5.16158e-20)
(0.973503 1.06211 1.13871e-19)
(0.890173 1.02293 -1.88951e-20)
(0.796455 0.977542 4.13977e-20)
(0.689371 0.921457 6.75447e-19)
(0.581365 0.856553 7.21018e-19)
(0.488545 0.788793 5.20829e-19)
(0.412055 0.714157 5.92354e-19)
(0.339787 0.619961 -6.42308e-19)
(0.255025 0.493867 -6.69167e-19)
(0.140358 0.33955 0)
(0.0489372 0.828398 0)
(0.105185 2.54526 1.72442e-19)
(0.106185 3.19702 0)
(0.109198 3.3863 4.14233e-19)
(0.238792 0.227231 0)
(0.99989 0.9838 0)
(1.15263 1.15265 0)
(1.15652 1.18057 1.60567e-20)
(1.10557 1.15739 2.98054e-20)
(1.0369 1.12242 2.36438e-20)
(0.963091 1.08627 7.33282e-20)
(0.879289 1.04749 -1.84679e-20)
(0.784642 1.00282 3.4784e-19)
(0.675609 0.948093 -9.65338e-21)
(0.563983 0.885112 1.42282e-18)
(0.465592 0.819533 -5.97998e-20)
(0.380329 0.744257 7.16518e-20)
(0.298792 0.635495 9.25262e-20)
(0.192681 0.511545 -2.87095e-21)
(0.107935 0.961185 1.79437e-21)
(0.14558 2.70652 -8.98433e-19)
(0.155357 3.28951 -3.39506e-19)
(0.143234 3.42592 1.76853e-19)
(0.12938 3.44854 -1.97182e-19)
(0.156863 0.18386 6.19825e-20)
(0.988969 1.0081 0)
(1.14195 1.17472 -1.42449e-19)
(1.14543 1.20287 -1.40337e-19)
(1.09511 1.18011 9.10791e-20)
(1.02693 1.14555 -1.91404e-20)
(0.952971 1.10941 -7.55632e-20)
(0.868907 1.07126 2.07433e-19)
(0.773481 1.02761 -2.85035e-19)
(0.662749 0.97471 0)
(0.547712 0.914417 6.98868e-19)
(0.443914 0.851846 -4.23894e-19)
(0.348547 0.780725 0)
(0.255655 0.653343 8.58534e-20)
(0.158467 0.795003 2.05534e-19)
(0.16046 2.47196 -2.4359e-19)
(0.221641 3.32256 2.74468e-19)
(0.200075 3.44071 1.48593e-19)
(0.166002 3.4624 1.68349e-19)
(0.143387 3.47273 2.68608e-19)
(0.282019 0.265979 -1.1187e-19)
(0.973811 1.01808 0)
(1.12336 1.19964 1.58933e-19)
(1.13056 1.23431 1.63644e-19)
(1.07824 1.21317 -1.14155e-19)
(1.00974 1.17943 -5.92666e-21)
(0.935087 1.145 7.3193e-20)
(0.850491 1.108 1.61829e-20)
(0.753677 1.06623 2.72921e-19)
(0.640141 1.01674 5.83973e-19)
(0.519938 0.96214 3.95253e-20)
(0.407258 0.906142 3.76271e-19)
(0.292497 0.838056 6.68315e-20)
(0.218114 0.964629 -8.43311e-20)
(0.234407 2.32054 -1.93482e-19)
(0.297449 3.32632 1.87175e-19)
(0.280825 3.47208 -2.07774e-19)
(0.244712 3.49371 -1.20526e-19)
(0.206782 3.52122 -1.02552e-19)
(0.154667 3.51477 -1.20674e-20)
(0.270001 0.26292 0)
(0.971495 1.04079 4.88166e-20)
(1.11504 1.22286 -3.37136e-20)
(1.1201 1.25762 -2.05411e-20)
(1.06774 1.23635 -8.49121e-20)
(0.999457 1.20306 1.16793e-20)
(0.924575 1.1689 -3.86031e-20)
(0.839826 1.13265 1.45603e-20)
(0.742542 1.09218 -2.8472e-19)
(0.627868 1.04525 -1.4173e-20)
(0.505289 0.995087 -1.26339e-18)
(0.388748 0.944586 5.34865e-20)
(0.280962 0.906085 -6.31621e-20)
(0.258612 1.48105 -7.81888e-20)
(0.334914 3.0904 1.77467e-20)
(0.356909 3.47009 7.68567e-22)
(0.315897 3.5277 3.02805e-19)
(0.278017 3.55319 1.48826e-19)
(0.228829 3.57672 -3.81275e-20)
(0.169013 3.57246 -5.7017e-20)
(0.253711 0.261374 1.26362e-19)
(0.967617 1.06615 3.36328e-19)
(1.10624 1.24817 -9.73109e-20)
(1.10904 1.28232 -7.77254e-20)
(1.05665 1.2609 0)
(0.988736 1.22788 4.99115e-20)
(0.913915 1.19406 -4.04415e-20)
(0.829288 1.15851 1.28272e-20)
(0.731853 1.11942 -3.16019e-20)
(0.616552 1.07526 -5.29672e-19)
(0.492393 1.02983 -5.83553e-19)
(0.373746 0.985448 -4.40471e-19)
(0.281659 1.03516 -4.76793e-19)
(0.32705 2.17526 4.92518e-19)
(0.42159 3.37634 4.14256e-19)
(0.401268 3.5296 0)
(0.354977 3.57395 0)
(0.316625 3.61514 -2.96595e-20)
(0.264348 3.67609 0)
(0.181122 3.65152 -3.34856e-20)
(0.242943 0.263285 -1.92468e-19)
(0.961771 1.09261 -2.89519e-19)
(1.09602 1.27468 0)
(1.09663 1.30778 6.19844e-21)
(1.04431 1.28607 -1.02771e-19)
(0.976887 1.25321 9.77112e-20)
(0.902455 1.21975 -1.68083e-20)
(0.81815 1.18479 7.73678e-21)
(0.720806 1.14699 -2.02957e-19)
(0.605277 1.10555 2.66859e-20)
(0.480368 1.06497 0)
(0.361243 1.02974 0)