/*--------------------------------*- C++ -*----------------------------------*\
| =========                 |                                                 |
| \\      /  F ield         | OpenFOAM: The Open Source CFD Toolbox           |
|  \\    /   O peration     | Version:  4.0                                   |
|   \\  /    A nd           | Web:      www.OpenFOAM.org                      |
|    \\/     M anipulation  |                                                 |
\*---------------------------------------------------------------------------*/
FoamFile
{
    version     2.0;
    format      ascii;
    class       volScalarField;
    location    "46";
    object      p;
}
// * * * * * * * * * * * * * * * * * * * * * * * * * * * * * * * * * * * * * //

dimensions      [0 2 -2 0 0 0 0];

internalField   nonuniform List<scalar> 
8800
(
0.82785
0.780062
0.74137
0.712371
0.691503
0.676664
0.666057
0.658564
0.653728
0.651648
0.652889
0.657058
0.663686
0.672989
0.685759
0.703486
0.728258
0.762196
0.804742
0.863444
0.659106
0.666784
0.674253
0.677559
0.676052
0.670968
0.664474
0.658385
0.653646
0.650781
0.650476
0.652956
0.657423
0.663352
0.670109
0.67638
0.680015
0.679275
0.67385
0.665156
0.63752
0.643678
0.647803
0.650742
0.652784
0.65338
0.652262
0.650142
0.648106
0.647172
0.648106
0.650461
0.653239
0.655404
0.655999
0.65479
0.652441
0.649042
0.644482
0.64072
0.631731
0.63438
0.637128
0.639524
0.641151
0.642302
0.64303
0.64313
0.642812
0.642733
0.643452
0.644592
0.645407
0.645451
0.644826
0.643723
0.641898
0.63932
0.636912
0.635408
0.626379
0.627803
0.629577
0.631601
0.633376
0.634705
0.635677
0.636453
0.63704
0.637569
0.638182
0.638642
0.638711
0.638398
0.637681
0.636417
0.634708
0.63285
0.631538
0.630706
0.621341
0.62226
0.623496
0.625053
0.626674
0.628184
0.62945
0.630491
0.631422
0.632275
0.632916
0.633199
0.633119
0.632647
0.631741
0.63052
0.629175
0.627902
0.627074
0.626523
0.616482
0.617151
0.618107
0.619399
0.620794
0.622235
0.623651
0.624943
0.626103
0.627159
0.627921
0.628232
0.628099
0.627548
0.626708
0.625733
0.624697
0.623757
0.623165
0.62276
0.611758
0.612274
0.613051
0.614169
0.615431
0.616784
0.618202
0.619639
0.621019
0.622293
0.623226
0.623625
0.623536
0.623096
0.622447
0.621685
0.620879
0.620175
0.619734
0.619419
0.6071
0.60751
0.608159
0.609152
0.61034
0.611642
0.613055
0.614568
0.616132
0.617653
0.618806
0.619371
0.619452
0.619211
0.618769
0.618204
0.617594
0.617075
0.616743
0.616487
0.602426
0.60276
0.60332
0.604232
0.605369
0.606652
0.608094
0.609694
0.611429
0.613215
0.614656
0.615485
0.615817
0.615805
0.615572
0.615214
0.614783
0.614415
0.614167
0.613954
0.597651
0.597928
0.598426
0.599291
0.600406
0.60171
0.603216
0.604941
0.606884
0.608975
0.610782
0.611957
0.612588
0.612837
0.612829
0.612673
0.612418
0.612182
0.612
0.611817
0.592692
0.592924
0.593382
0.594231
0.595366
0.596731
0.598344
0.600249
0.602463
0.604934
0.60719
0.608779
0.609759
0.610302
0.610543
0.610591
0.610509
0.61039
0.610262
0.610102
0.587464
0.587661
0.588099
0.588961
0.590157
0.591629
0.593404
0.595555
0.598121
0.601077
0.603879
0.605954
0.607339
0.608213
0.60873
0.608988
0.609085
0.609077
0.608995
0.60885
0.581876
0.582043
0.582479
0.583383
0.584681
0.58631
0.588313
0.590789
0.593803
0.597364
0.600829
0.603488
0.605346
0.606599
0.607423
0.607936
0.608208
0.6083
0.608257
0.608124
0.57582
0.575963
0.57641
0.577385
0.57883
0.580675
0.582978
0.585867
0.589446
0.593751
0.598025
0.601388
0.603811
0.605511
0.606686
0.607471
0.60794
0.60814
0.608134
0.608007
0.56917
0.569286
0.569759
0.570836
0.572478
0.574607
0.577298
0.580713
0.584994
0.590209
0.59547
0.599684
0.602784
0.605015
0.606596
0.607687
0.608379
0.608689
0.608718
0.608595
0.561759
0.561851
0.562365
0.563579
0.565476
0.567967
0.571159
0.575247
0.580418
0.586766
0.59322
0.59844
0.602331
0.605176
0.607248
0.608699
0.609636
0.610064
0.610127
0.610004
0.553376
0.553469
0.554033
0.555399
0.557624
0.560584
0.564409
0.569343
0.575615
0.583351
0.59125
0.597685
0.60252
0.6061
0.608754
0.61063
0.611845
0.612399
0.612496
0.61237
0.543731
0.543804
0.544455
0.546037
0.54868
0.55224
0.556869
0.562867
0.570516
0.579959
0.589603
0.59748
0.603438
0.60789
0.611228
0.613603
0.61514
0.615835
0.615965
0.615834
0.532455
0.532509
0.533253
0.535144
0.538329
0.54266
0.548319
0.555671
0.565039
0.576566
0.588319
0.597914
0.605191
0.610672
0.614805
0.617778
0.619681
0.620527
0.62069
0.620548
0.519024
0.519063
0.519952
0.522246
0.526145
0.531497
0.53851
0.54762
0.559174
0.57328
0.587523
0.599106
0.607912
0.614585
0.619649
0.623309
0.625621
0.626625
0.626816
0.62666
0.502684
0.502712
0.503812
0.506674
0.51155
0.518276
0.527085
0.538466
0.552747
0.569965
0.587177
0.601097
0.611674
0.619731
0.625878
0.630329
0.633093
0.634258
0.634469
0.634295
0.482329
0.482355
0.483785
0.487492
0.493774
0.502442
0.513733
0.528149
0.545925
0.566929
0.587557
0.604078
0.616627
0.626237
0.633587
0.638946
0.64219
0.643506
0.643722
0.643525
0.456168
0.456213
0.458222
0.463321
0.471801
0.483346
0.49814
0.51658
0.538705
0.564181
0.588713
0.608141
0.622863
0.634178
0.642857
0.649186
0.652905
0.654335
0.654533
0.654306
0.421177
0.421326
0.424534
0.43221
0.444427
0.460371
0.480167
0.503909
0.531384
0.562052
0.590883
0.613414
0.630422
0.643533
0.653653
0.660957
0.665078
0.66655
0.666697
0.666437
0.371599
0.372566
0.378987
0.391987
0.410724
0.433493
0.460202
0.490657
0.524453
0.560905
0.594306
0.620031
0.639357
0.654291
0.665843
0.674013
0.678383
0.679793
0.679861
0.67957
0.298488
0.305707
0.32064
0.343631
0.372097
0.404012
0.439183
0.47739
0.518231
0.561016
0.5994
0.628636
0.650551
0.667546
0.680683
0.689713
0.694321
0.695704
0.695739
0.695483
0.219624
0.236723
0.260967
0.294583
0.333213
0.374451
0.418206
0.46442
0.512781
0.562689
0.607098
0.640841
0.666157
0.685791
0.700971
0.711011
0.715725
0.716973
0.717039
0.71691
0.154
0.174166
0.206158
0.248715
0.296309
0.346336
0.398407
0.452462
0.50819
0.565018
0.615191
0.653163
0.681619
0.703642
0.720415
0.731029
0.735679
0.737062
0.737222
0.737173
0.10026
0.122102
0.159589
0.208546
0.263189
0.320603
0.38003
0.441282
0.503931
0.567335
0.622955
0.664867
0.696193
0.720297
0.738473
0.749958
0.755366
0.756663
0.75682
0.756815
0.0554237
0.0784532
0.119718
0.173759
0.234083
0.297588
0.363314
0.43095
0.499913
0.569427
0.630133
0.675699
0.709634
0.735703
0.755293
0.767814
0.773669
0.775067
0.775299
0.775331
0.017205
0.0409237
0.0850354
0.14311
0.208208
0.27689
0.348084
0.421383
0.496079
0.571236
0.636676
0.685603
0.721933
0.749763
0.770591
0.783877
0.790172
0.791832
0.792148
0.792201
-0.0163928
0.00779658
0.0541828
0.115562
0.184691
0.257867
0.333906
0.412304
0.492248
0.572645
0.642489
0.694518
0.733
0.762332
0.784152
0.798032
0.804674
0.806682
0.807066
0.807118
-0.0468227
-0.0222179
0.026034
0.0902448
0.162846
0.239952
0.320322
0.40336
0.488155
0.573459
0.647454
0.702369
0.742796
0.773437
0.795951
0.810211
0.817188
0.819419
0.81984
0.819877
-0.0750002
-0.0500077
-0.000139712
0.0664768
0.142141
0.222725
0.306982
0.39426
0.483573
0.573524
0.651497
0.709183
0.751413
0.783124
0.806042
0.820635
0.827787
0.830188
0.830645
0.830665
-0.101689
-0.0762648
-0.0248954
0.0438066
0.12218
0.205865
0.293631
0.384799
0.478334
0.572727
0.654599
0.715041
0.759024
0.791676
0.815021
0.829675
0.836993
0.839503
0.839943
0.839927
-0.127212
-0.101349
-0.0488433
0.0219215
0.102693
0.189157
0.280097
0.374841
0.472331
0.571011
0.656781
0.720027
0.765765
0.799312
0.823015
0.837822
0.845181
0.847697
0.848151
0.848106
-0.151971
-0.125535
-0.0719731
0.000592266
0.0834976
0.172457
0.266278
0.364304
0.4655
0.568336
0.658049
0.724212
0.771769
0.806238
0.830299
0.845212
0.852572
0.855042
0.855463
0.8554
-0.176083
-0.149198
-0.0944591
-0.020314
0.0644998
0.155695
0.252119
0.353152
0.457813
0.564681
0.658403
0.727643
0.777155
0.812634
0.837101
0.852098
0.859404
0.861796
0.862132
0.86202
-0.199655
-0.172222
-0.11645
-0.040869
0.0456635
0.138854
0.237616
0.34138
0.449265
0.560021
0.657808
0.73033
0.78201
0.818651
0.843572
0.858601
0.865731
0.867956
0.868195
0.868035
-0.222799
-0.194767
-0.137999
-0.061095
0.0269728
0.121947
0.222798
0.329026
0.439877
0.554339
0.65621
0.732243
0.786394
0.824416
0.849824
0.864769
0.871597
0.873564
0.8737
0.873508
-0.245515
-0.216806
-0.159094
-0.0809736
0.00846999
0.105013
0.20772
0.316143
0.429686
0.547622
0.653543
0.733311
0.790313
0.830055
0.856035
0.870713
0.877022
0.878642
0.878669
0.878459
-0.267638
-0.238294
-0.179677
-0.100468
-0.00980122
0.0881263
0.19245
0.302811
0.418759
0.539895
0.64974
0.733433
0.793712
0.835675
0.862469
0.876686
0.882116
0.88321
0.883115
0.882905
-0.289141
-0.259198
-0.19973
-0.119526
-0.0277794
0.071351
0.177082
0.289114
0.407177
0.531186
0.644751
0.732474
0.796464
0.841296
0.869459
0.883187
0.887196
0.887341
0.887047
0.886889
-0.310086
-0.279473
-0.219216
-0.138108
-0.0453997
0.054771
0.161705
0.275157
0.395033
0.521559
0.63853
0.73029
0.798354
0.846758
0.87725
0.891054
0.893229
0.891482
0.890561
0.890665
-0.330297
-0.299091
-0.238075
-0.156148
-0.0626001
0.0384697
0.146415
0.261051
0.382444
0.511112
0.631073
0.726722
0.799093
0.851642
0.885659
0.901175
0.902343
0.897878
0.894763
0.89414
-0.349862
-0.318044
-0.256323
-0.173675
-0.0794139
0.0224012
0.131154
0.246735
0.369336
0.499764
0.622242
0.721494
0.798349
0.855336
0.893844
0.913555
0.916726
0.911223
0.90218
0.88723
-0.368706
-0.336318
-0.27408
-0.190884
-0.0961319
0.00622882
0.115503
0.231722
0.355167
0.48687
0.611378
0.713796
0.795483
0.856935
0.899724
0.925273
0.931452
0.91992
0.90059
0.887371
-0.386653
-0.354055
-0.29115
-0.207548
-0.112426
-0.00969947
0.099689
0.216339
0.340246
0.472698
0.598579
0.703215
0.789798
0.855303
0.898689
0.923858
0.933527
0.911789
0.843375
0.812285
-0.40304
-0.372491
-0.307201
-0.223093
-0.127556
-0.0248794
0.084019
0.200813
0.32479
0.457374
0.583801
0.689495
0.78004
0.849883
0.886125
0.904603
0.898651
0.846384
0.777102
0.734322
-0.459316
-0.388717
-0.32186
-0.238588
-0.143087
-0.0407535
0.0684292
0.184866
0.308436
0.440457
0.566468
0.672103
0.762561
0.839189
0.845281
0.852362
0.808249
0.740453
0.664469
0.622061
-0.420647
-0.404448
-0.343614
-0.260065
-0.165748
-0.0635717
0.0446075
0.160377
0.282906
0.413332
0.537012
0.640472
0.722541
0.802202
0.792896
0.684336
0.581475
0.509881
0.437269
0.46929
-0.452034
-0.422459
-0.360612
-0.277818
-0.183444
-0.0815114
0.026927
0.142048
0.263501
0.392072
0.51279
0.611939
0.685542
0.727371
0.680745
0.535878
0.410375
0.320402
0.222203
0.273678
-0.476255
-0.443737
-0.380623
-0.297574
-0.203104
-0.101264
0.00710008
0.121394
0.241456
0.367597
0.484515
0.577643
0.642245
0.650789
0.546674
0.37589
0.224748
0.10711
-0.0235463
0.0101055
-0.499964
-0.465898
-0.401592
-0.317638
-0.222984
-0.121254
-0.0133878
0.0999601
0.218442
0.341797
0.454059
0.540255
0.589409
0.566989
0.410957
0.216146
0.0266836
-0.140782
-0.329519
-0.346643
-0.523027
-0.488539
-0.423336
-0.338602
-0.243717
-0.142164
-0.0349182
0.0773702
0.194028
0.314243
0.421219
0.500071
0.530724
0.472762
0.281919
0.0725789
-0.144264
-0.333556
-0.576166
-0.877702
-0.546373
-0.511893
-0.446145
-0.360891
-0.265764
-0.164336
-0.0576338
0.0535709
0.168311
0.28516
0.386636
0.457057
0.46828
0.35956
0.16984
-0.0390322
-0.242913
-0.415134
-0.483606
-0.564378
-0.570922
-0.536414
-0.470367
-0.384851
-0.289624
-0.188408
-0.0823377
0.0276175
0.140132
0.25312
0.348727
0.40854
0.39539
0.253046
0.0705015
-0.119415
-0.281513
-0.373929
-0.397896
-0.413964
-0.596993
-0.562405
-0.496169
-0.410563
-0.31542
-0.214583
-0.109381
-0.000973514
0.108905
0.217403
0.306634
0.352991
0.322351
0.15426
-0.019449
-0.184214
-0.310092
-0.34898
-0.362104
-0.363375
-0.62478
-0.590023
-0.5236
-0.438005
-0.34309
-0.242857
-0.138774
-0.0322464
0.0745599
0.178003
0.259994
0.292244
0.243464
0.0628291
-0.101895
-0.249316
-0.325342
-0.342401
-0.343836
-0.343649
-0.654325
-0.619286
-0.552669
-0.467156
-0.372631
-0.273204
-0.170508
-0.0662099
0.0371049
0.134975
0.20888
0.230271
0.145613
-0.0209067
-0.177745
-0.299174
-0.335347
-0.334104
-0.333283
-0.332724
-0.685326
-0.65007
-0.583253
-0.497913
-0.40394
-0.305552
-0.204538
-0.102828
-0.00343347
0.0884013
0.153972
0.158883
0.0557292
-0.0992159
-0.237924
-0.313609
-0.323798
-0.326175
-0.326795
-0.326437
-0.717196
-0.68181
-0.615081
-0.530032
-0.436807
-0.339719
-0.24069
-0.141958
-0.046888
0.0386151
0.0957055
0.0859975
-0.0249469
-0.165906
-0.282346
-0.313387
-0.322138
-0.323728
-0.323373
-0.322895
-0.749469
-0.713973
-0.647655
-0.563091
-0.470856
-0.375356
-0.278657
-0.183295
-0.0929873
-0.0137995
0.0329253
0.0161503
-0.0985795
-0.220591
-0.31413
-0.330412
-0.322651
-0.321659
-0.321596
-0.321251
-0.781249
-0.745896
-0.680099
-0.596426
-0.505508
-0.411947
-0.317947
-0.226337
-0.14124
-0.0683753
-0.0313227
-0.0499815
-0.1624
-0.261865
-0.322193
-0.329783
-0.32501
-0.321064
-0.319811
-0.319505
-0.810913
-0.776327
-0.711431
-0.629094
-0.539946
-0.448732
-0.357839
-0.27035
-0.190813
-0.124707
-0.0908972
-0.127452
-0.215137
-0.290362
-0.316756
-0.33093
-0.327926
-0.321853
-0.320088
-0.319373
-0.836906
-0.803333
-0.740495
-0.659908
-0.573077
-0.484684
-0.397376
-0.314361
-0.240556
-0.181908
-0.149075
-0.209707
-0.273682
-0.268248
-0.31559
-0.326811
-0.341933
-0.349506
-0.350958
-0.350154
-0.857101
-0.825252
-0.765081
-0.687404
-0.603512
-0.518569
-0.435316
-0.357134
-0.289205
-0.238618
-0.210558
-0.296766
-0.361214
-0.289377
-0.275301
-0.371626
-0.426314
-0.449759
-0.45011
-0.446968
-0.869241
-0.840046
-0.783487
-0.709571
-0.629669
-0.548891
-0.470204
-0.397159
-0.33523
-0.292847
-0.272478
-0.395025
-0.571108
-0.641447
-0.596679
-0.58178
-0.584715
-0.579682
-0.568073
-0.564946
-0.870676
-0.845467
-0.793628
-0.724612
-0.649723
-0.573995
-0.500381
-0.432587
-0.376611
-0.341924
-0.328609
-0.489256
-0.789535
-1.16893
-1.08642
-0.810369
-0.653237
-0.594589
-0.57773
-0.573621
-0.859589
-0.839095
-0.7934
-0.730884
-0.662108
-0.592227
-0.524067
-0.461383
-0.410641
-0.380841
-0.369577
-0.489512
-0.703305
-1.10152
-1.08728
-0.714283
-0.513489
-0.453878
-0.441317
-0.436107
-0.83361
-0.817865
-0.781015
-0.727096
-0.665719
-0.602385
-0.53975
-0.481599
-0.433586
-0.405026
-0.388288
-0.304233
-0.107015
-0.0185546
-0.134657
-0.182916
-0.231878
-0.243946
-0.246299
-0.245553
-0.794852
-0.78446
-0.756959
-0.713386
-0.660522
-0.604126
-0.546763
-0.491679
-0.444261
-0.412703
-0.381246
-0.157426
0.275581
0.95379
0.884641
0.396897
0.0282425
-0.102221
-0.146116
-0.1466
-0.749415
-0.743447
-0.725846
-0.692402
-0.64845
-0.598434
-0.54549
-0.492055
-0.442832
-0.405059
-0.376951
-0.303982
-0.29015
-0.427886
-0.851594
-1.21011
-1.16934
-0.885968
-0.673088
-0.648902
-0.706493
-0.702946
-0.693719
-0.669543
-0.632723
-0.587738
-0.537699
-0.484086
-0.429939
-0.385582
-0.361362
-0.532498
-1.17569
-2.17643
-2.88074
-3.11872
-2.93637
-2.55728
-2.22034
-1.99368
-0.673539
-0.671284
-0.66652
-0.64995
-0.618336
-0.575802
-0.525831
-0.469239
-0.407721
-0.34165
-0.29795
-0.381028
-0.75382
-1.06977
-1.10467
-0.896258
-0.556558
-0.260881
-0.0536592
0.0447916
-0.647326
-0.646409
-0.644898
-0.635679
-0.608684
-0.566546
-0.513742
-0.451277
-0.378537
-0.291182
-0.19418
-0.0815759
0.0476837
0.319215
0.673305
1.09277
1.46823
1.7215
1.84882
1.88921
-0.631364
-0.630803
-0.630222
-0.625957
-0.604073
-0.560988
-0.503368
-0.433469
-0.350088
-0.246206
-0.115928
0.0294415
0.284947
0.728821
1.30235
1.8279
2.22234
2.45008
2.54943
2.5752
-0.621717
-0.621325
-0.62069
-0.619385
-0.602829
-0.559562
-0.496746
-0.419886
-0.326151
-0.214755
-0.0864478
0.0458055
0.264215
0.734377
1.27505
1.76616
2.10951
2.29657
2.37415
2.39277
-0.616868
-0.615875
-0.613794
-0.613224
-0.604235
-0.563805
-0.495999
-0.411816
-0.31365
-0.201764
-0.0833721
0.0392852
0.191391
0.577402
1.01112
1.37851
1.64137
1.7845
1.84326
1.85756
-0.625948
-0.623026
-0.618242
-0.618073
-0.616152
-0.576805
-0.500055
-0.40705
-0.306257
-0.196629
-0.0911084
0.0137945
0.121584
0.390518
0.707859
0.965614
1.15019
1.25014
1.29173
1.30174
-0.659929
-0.658142
-0.660226
-0.664897
-0.660239
-0.600678
-0.504182
-0.399767
-0.296861
-0.192801
-0.102603
-0.0213823
0.058646
0.246292
0.459568
0.630838
0.753327
0.819834
0.847884
0.853984
-0.7003
-0.708063
-0.723989
-0.730269
-0.704264
-0.612741
-0.494851
-0.382652
-0.2822
-0.189062
-0.116212
-0.0587774
-0.00863187
0.124043
0.272826
0.388127
0.467049
0.508537
0.525505
0.52921
-0.663111
-0.67419
-0.692555
-0.696116
-0.660302
-0.56371
-0.450456
-0.347193
-0.258602
-0.181162
-0.124666
-0.0882309
-0.058181
0.0375129
0.139224
0.216713
0.269852
0.297806
0.309291
0.310974
-0.491339
-0.501554
-0.514954
-0.518025
-0.491678
-0.429731
-0.358261
-0.287269
-0.22194
-0.162888
-0.120927
-0.0995593
-0.081345
-0.00684452
0.066183
0.116812
0.147461
0.162937
0.168825
0.169403
-0.262604
-0.267529
-0.276002
-0.284307
-0.28252
-0.268
-0.243415
-0.211343
-0.174887
-0.136218
-0.107083
-0.0915692
-0.07585
-0.0259983
0.0215555
0.0550458
0.0745661
0.084954
0.0891583
0.0892894
-0.0795343
-0.0820594
-0.0893015
-0.103009
-0.121386
-0.136575
-0.143288
-0.140028
-0.127113
-0.106008
-0.0840633
-0.0675778
-0.0515808
-0.0174663
0.0122216
0.0316931
0.043088
0.048893
0.0510968
0.0508681
0.0231156
0.0215744
0.0150603
-0.000614705
-0.0252922
-0.0515691
-0.0725273
-0.0844895
-0.0855606
-0.0754296
-0.0573451
-0.0366135
-0.0155554
0.00868598
0.0224416
0.031123
0.0368301
0.040042
0.0414721
0.0408121
0.0628381
0.0616675
0.0562831
0.0426336
0.0202571
-0.00544336
-0.0288765
-0.046042
-0.0540451
-0.0503829
-0.034464
-0.0101814
0.0148268
0.0276747
0.0310253
0.0339327
0.0379264
0.0415976
0.0425933
0.0414296
0.0683156
0.0674598
0.0635088
0.0533189
0.0361538
0.0152912
-0.00547643
-0.0226852
-0.0331769
-0.03342
-0.0201943
0.00327755
0.02717
0.0315943
0.0301879
0.0328636
0.0368345
0.0398412
0.0402224
0.0387531
0.0589961
0.0584257
0.0557333
0.0486613
0.0364022
0.0207219
0.00398745
-0.0110656
-0.021788
-0.0248951
-0.0162726
0.00150084
0.0182303
0.0166505
0.0133726
0.0166337
0.0224913
0.0266781
0.0273474
0.0257282
0.0446395
0.0442818
0.0425193
0.037785
0.0293097
0.0179512
0.0050321
-0.00769393
-0.0183219
-0.0243721
-0.0223187
-0.014107
-0.00759894
-0.0125625
-0.0140864
-0.00917591
-0.00323174
0.000264793
0.000545846
-0.000879243
0.0296031
0.0293711
0.0282323
0.0251259
0.0193673
0.0112298
0.00136102
-0.00933116
-0.019967
-0.0293836
-0.0354826
-0.0393301
-0.0447247
-0.0527953
-0.0517945
-0.0445817
-0.0384818
-0.03622
-0.036132
-0.0371565
0.0159546
0.0157619
0.0150092
0.0130233
0.00918394
0.00339628
-0.00422271
-0.0134292
-0.0241797
-0.0369258
-0.0512529
-0.0672467
-0.0848871
-0.0935851
-0.0878202
-0.0794764
-0.074301
-0.0730819
-0.0732167
-0.0737688
0.00479085
0.00461948
0.00408267
0.00281864
0.000288644
-0.00383817
-0.00978255
-0.0178095
-0.0286297
-0.0439609
-0.0652108
-0.0923753
-0.115811
-0.12121
-0.112963
-0.104827
-0.101365
-0.10088
-0.101055
-0.101352
-0.00333238
-0.00349997
-0.00391414
-0.00473678
-0.00639935
-0.00934411
-0.0140124
-0.0209616
-0.0314357
-0.0478276
-0.0727894
-0.104744
-0.13241
-0.132921
-0.123076
-0.116222
-0.114451
-0.115012
-0.11515
-0.115276
-0.00823932
-0.00841559
-0.00874654
-0.00930553
-0.0104269
-0.0125582
-0.0162434
-0.0222032
-0.0316022
-0.0471865
-0.0718341
-0.103204
-0.126049
-0.12262
-0.114816
-0.111553
-0.112253
-0.113555
-0.113676
-0.113715
-0.0102346
-0.0103876
-0.010661
-0.0110811
-0.0118528
-0.0134023
-0.0162424
-0.0210141
-0.0288148
-0.0418808
-0.0618352
-0.086278
-0.100734
-0.0964362
-0.0919201
-0.0933034
-0.0958823
-0.0974904
-0.0977086
-0.0978078
-0.00982229
-0.00995085
-0.0101805
-0.0105004
-0.0110476
-0.0121662
-0.0142607
-0.0177997
-0.0235667
-0.0328536
-0.0456953
-0.0595558
-0.065092
-0.0617913
-0.0630199
-0.0673234
-0.0705911
-0.0719289
-0.0722401
-0.0724843
-0.00771209
-0.00781871
-0.00799323
-0.00822952
-0.00861073
-0.00938364
-0.0107559
-0.0130768
-0.0167256
-0.0220876
-0.0275604
-0.0303896
-0.0293919
-0.0276216
-0.0329259
-0.0391625
-0.0422714
-0.0430575
-0.0435005
-0.0438772
-0.00455354
-0.00462915
-0.00473727
-0.00487256
-0.00509969
-0.00553388
-0.00629506
-0.00752267
-0.0093376
-0.0115411
-0.0120344
-0.00646681
0.00329112
4.15055e-05
-0.00834212
-0.0150409
-0.0168532
-0.0164978
-0.0171011
-0.0177798
-0.000787097
-0.000814129
-0.000820664
-0.00087854
-0.00100406
-0.00102087
-0.0010716
-0.00126276
-0.00146928
-0.00176405
-0.00185114
0.000349218
0.00608531
0.00618797
0.00121187
-0.00187401
-0.00260583
-0.00287316
-0.00350884
-0.00337906
-0.0979329
0.0704415
0.267347
0.439087
0.576736
0.685661
0.775996
0.852717
0.887419
0.864111
0.208579
0.330424
0.461557
0.575071
0.670946
0.750447
0.814812
0.860448
0.883299
0.895318
0.429892
0.513528
0.603153
0.682459
0.750722
0.80785
0.85326
0.886413
0.910333
0.928272
0.592227
0.651943
0.714435
0.772047
0.822216
0.864812
0.89978
0.927654
0.950564
0.968839
0.71874
0.762273
0.808611
0.852778
0.891797
0.925863
0.955006
0.979244
0.999706
1.01753
0.823712
0.856836
0.895196
0.930976
0.963805
0.993219
1.01891
1.0405
1.0584
1.07574
0.916668
0.945502
0.97964
1.01192
1.04199
1.06927
1.0931
1.11288
1.12843
1.1455
1.0055
1.0348
1.06891
1.10104
1.13072
1.15737
1.18029
1.19882
1.21222
1.22925
1.10097
1.13423
1.17094
1.20457
1.23466
1.26089
1.28288
1.30018
1.31207
1.32947
1.21605
1.25392
1.2926
1.32688
1.35625
1.38102
1.40142
1.41733
1.42881
1.44688
1.36105
1.39961
1.43578
1.46649
1.49218
1.51429
1.53336
1.5489
1.56134
1.57934
1.53617
1.56779
1.59399
1.61645
1.63644
1.65517
1.67289
1.68938
1.70473
1.7228
1.7248
1.74201
1.75705
1.77329
1.7892
1.80374
1.81695
1.83088
1.84842
1.86858
1.90652
1.91607
1.92762
1.93843
1.94772
1.9573
1.96809
1.97946
1.99082
2.00618
2.11378
2.11744
2.10249
2.08768
2.08141
2.08709
2.10557
2.13588
2.16806
2.19472
2.42009
2.28523
2.2086
2.16622
2.1488
2.15276
2.18016
2.23658
2.3392
2.56356
0.718449
0.716319
0.711835
0.703207
0.690978
0.678842
0.668604
0.660694
0.655057
0.651776
0.651388
0.654093
0.65917
0.666372
0.675744
0.687273
0.699917
0.710946
0.717055
0.720107
0.642911
0.648757
0.655089
0.659577
0.662041
0.661709
0.658962
0.655137
0.651606
0.649317
0.649135
0.651297
0.65493
0.659196
0.662986
0.664857
0.663911
0.660423
0.655256
0.648634
0.634501
0.636797
0.640198
0.643189
0.645257
0.646744
0.647486
0.647152
0.646104
0.64519
0.645326
0.646712
0.648494
0.649774
0.649934
0.649028
0.647467
0.645123
0.641853
0.63893
0.629011
0.630097
0.631927
0.634299
0.636314
0.637731
0.638736
0.639468
0.639843
0.64003
0.640475
0.641236
0.641794
0.641829
0.641391
0.640523
0.639039
0.636943
0.634849
0.633464
0.623836
0.624499
0.625603
0.627301
0.629072
0.63069
0.631968
0.632961
0.633811
0.634559
0.635235
0.635731
0.635876
0.635671
0.635073
0.633993
0.632546
0.630988
0.62966
0.628877
0.618894
0.619355
0.620138
0.621428
0.622903
0.624404
0.625849
0.627119
0.628218
0.629223
0.630073
0.630572
0.630659
0.630336
0.629599
0.628577
0.627426
0.626274
0.625347
0.624827
0.61411
0.614455
0.615062
0.616121
0.617402
0.618758
0.620173
0.621586
0.622915
0.624135
0.625166
0.625773
0.625875
0.625537
0.624887
0.624069
0.623184
0.622294
0.621607
0.621226
0.609429
0.609697
0.610187
0.611086
0.61224
0.613516
0.614882
0.616333
0.617821
0.619269
0.620521
0.621285
0.621492
0.621291
0.620834
0.62022
0.619529
0.618857
0.618348
0.618058
0.604774
0.604987
0.605393
0.606182
0.607254
0.608478
0.609831
0.61132
0.612929
0.614597
0.616112
0.61711
0.617531
0.617549
0.617302
0.616892
0.616392
0.615903
0.61553
0.615302
0.600059
0.600231
0.600579
0.601293
0.602318
0.603517
0.60489
0.606454
0.608204
0.610105
0.611933
0.613255
0.613968
0.614246
0.614227
0.614025
0.61372
0.613392
0.613131
0.61295
0.595202
0.595341
0.595647
0.596316
0.597323
0.598543
0.599976
0.601655
0.603596
0.605782
0.607993
0.60972
0.610784
0.611362
0.611599
0.611615
0.611497
0.611322
0.611154
0.611008
0.590121
0.590233
0.590511
0.59116
0.592182
0.593468
0.595006
0.596852
0.599053
0.601602
0.604288
0.606502
0.607979
0.608898
0.609421
0.60967
0.609742
0.609716
0.609629
0.609511
0.584726
0.584814
0.585076
0.585729
0.586804
0.588196
0.589893
0.591976
0.594517
0.597536
0.600812
0.603606
0.605564
0.606875
0.607716
0.608232
0.608509
0.608622
0.608606
0.60851
0.578917
0.578984
0.579237
0.579918
0.581084
0.582632
0.584548
0.586944
0.589912
0.593516
0.597513
0.601014
0.60355
0.605325
0.606531
0.60734
0.607843
0.608102
0.608153
0.608076
0.572579
0.572625
0.572879
0.57361
0.574906
0.576662
0.578871
0.581667
0.585179
0.589509
0.594388
0.598743
0.601973
0.604298
0.605927
0.607066
0.607827
0.608244
0.60836
0.608299
0.565571
0.5656
0.565857
0.566659
0.568127
0.570154
0.572737
0.576045
0.580246
0.585474
0.591432
0.596823
0.600879
0.60385
0.605984
0.607505
0.608562
0.609148
0.609332
0.609284
0.557708
0.557722
0.55798
0.558879
0.560576
0.562942
0.566011
0.569976
0.575048
0.581399
0.588677
0.595304
0.600337
0.604069
0.606791
0.608783
0.61017
0.610942
0.611194
0.611159
0.548709
0.548692
0.549009
0.55004
0.552014
0.554821
0.558507
0.563293
0.569448
0.577185
0.586073
0.594189
0.600394
0.605034
0.608464
0.611008
0.612782
0.613764
0.614088
0.614063
0.538289
0.538246
0.538606
0.539825
0.542157
0.545533
0.550005
0.55584
0.563358
0.572803
0.583645
0.593553
0.601145
0.606859
0.611123
0.614309
0.616539
0.617757
0.61816
0.618142
0.525985
0.525914
0.52635
0.527809
0.530613
0.534735
0.540228
0.547416
0.556677
0.568265
0.581479
0.593498
0.602699
0.609665
0.614919
0.618855
0.621604
0.623082
0.623563
0.623549
0.511165
0.511064
0.511619
0.513422
0.51686
0.521981
0.528831
0.537791
0.549272
0.563506
0.579568
0.594073
0.605164
0.613574
0.619975
0.624783
0.628123
0.629882
0.630438
0.630422
0.492921
0.492792
0.493539
0.495837
0.500158
0.506658
0.515359
0.526681
0.541027
0.558541
0.578002
0.595383
0.608623
0.618689
0.626397
0.632207
0.636216
0.63827
0.638891
0.638866
0.469832
0.469685
0.470761
0.473835
0.479497
0.488034
0.499384
0.513947
0.532024
0.553587
0.577021
0.597635
0.613243
0.625148
0.634292
0.641225
0.645944
0.648284
0.648947
0.6489
0.439563
0.439438
0.441119
0.44555
0.453472
0.46519
0.480424
0.499424
0.522259
0.54868
0.576672
0.600888
0.619078
0.632951
0.643671
0.651822
0.657243
0.659819
0.660483
0.660401
0.397989
0.398027
0.401057
0.408346
0.420456
0.437392
0.458397
0.483402
0.512203
0.54433
0.577373
0.605393
0.626259
0.642163
0.654501
0.663888
0.669895
0.672579
0.673187
0.673061
0.337398
0.338583
0.346039
0.359692
0.379496
0.404737
0.43387
0.46652
0.502372
0.540865
0.579281
0.611217
0.634773
0.652677
0.666599
0.677053
0.683488
0.686071
0.686512
0.686344
0.265102
0.266863
0.281167
0.304733
0.335353
0.370423
0.408464
0.449324
0.492809
0.538409
0.583158
0.620045
0.647232
0.667886
0.68383
0.695614
0.702507
0.705103
0.705575
0.705519
0.190367
0.196532
0.217679
0.251395
0.292324
0.336963
0.383896
0.433026
0.484238
0.537081
0.588382
0.630442
0.661383
0.684988
0.703258
0.716378
0.723515
0.72581
0.726099
0.726123
0.129312
0.13775
0.163515
0.204236
0.253155
0.305933
0.360876
0.417739
0.476323
0.536139
0.593705
0.640637
0.675063
0.701262
0.721384
0.735591
0.742843
0.745229
0.745885
0.74599
0.079613
0.0886428
0.117954
0.163894
0.218901
0.278235
0.339937
0.403621
0.468924
0.535241
0.598702
0.650186
0.687823
0.716385
0.738254
0.753578
0.761587
0.764557
0.765348
0.765478
0.0378731
0.0471894
0.0789578
0.128888
0.188876
0.25365
0.321071
0.390705
0.462032
0.534311
0.603252
0.658965
0.699543
0.730262
0.753792
0.770213
0.779089
0.782468
0.783388
0.78351
0.00173445
0.0111765
0.0448034
0.0979319
0.162029
0.231435
0.30384
0.378738
0.455503
0.53326
0.607298
0.666926
0.710199
0.742852
0.767769
0.785109
0.794631
0.798376
0.799419
0.799554
-0.0304386
-0.0209419
0.0141168
0.0699564
0.137502
0.210889
0.287697
0.367322
0.449056
0.531888
0.610689
0.673968
0.7197
0.754063
0.780085
0.798129
0.808202
0.812273
0.813336
0.813468
-0.0598767
-0.0503212
-0.0140936
0.0440825
0.114607
0.191478
0.272187
0.356089
0.442394
0.529975
0.613288
0.680032
0.728055
0.763914
0.790797
0.809271
0.819687
0.823992
0.825131
0.825254
-0.0874007
-0.0777864
-0.0404967
0.0196596
0.0928364
0.172788
0.256983
0.344767
0.435297
0.527355
0.615002
0.685123
0.735371
0.772598
0.80016
0.818892
0.829472
0.833954
0.835167
0.835278
-0.113555
-0.103847
-0.065572
-0.00373057
0.0718306
0.154517
0.241848
0.333168
0.427612
0.523908
0.615786
0.689292
0.741771
0.780303
0.808458
0.827449
0.838126
0.842678
0.843876
0.843959
-0.138796
-0.128895
-0.089777
-0.0263183
0.0513366
0.136466
0.226629
0.321171
0.419246
0.51957
0.615623
0.692591
0.747362
0.787203
0.815939
0.835152
0.845922
0.850453
0.851613
0.85164
-0.163344
-0.153206
-0.113312
-0.0482928
0.0312048
0.118518
0.211231
0.308713
0.410144
0.514306
0.614501
0.695043
0.752236
0.793459
0.822821
0.842251
0.853055
0.857532
0.85863
0.858651
-0.187289
-0.176925
-0.136181
-0.0698067
0.0113535
0.100626
0.195624
0.295768
0.400292
0.508087
0.612392
0.696659
0.756455
0.79921
0.829288
0.84895
0.859731
0.86407
0.865059
0.865035
-0.210759
-0.200075
-0.158577
-0.0909157
-0.00824932
0.0827716
0.179811
0.282351
0.389704
0.500918
0.60926
0.697398
0.760055
0.804571
0.835479
0.855329
0.865971
0.870088
0.870916
0.870835
-0.233719
-0.22274
-0.180479
-0.111631
-0.0275984
0.0649782
0.163837
0.268512
0.378421
0.492806
0.605065
0.697192
0.76302
0.809627
0.841533
0.861506
0.871817
0.875564
0.876208
0.87608
-0.256204
-0.244905
-0.201835
-0.131917
-0.0466572
0.0472918
0.147755
0.25432
0.366507
0.483783
0.599773
0.695959
0.765281
0.814425
0.847639
0.867689
0.877396
0.880556
0.880965
0.880798
-0.278028
-0.266483
-0.222633
-0.151729
-0.0653701
0.0297928
0.131637
0.239853
0.354042
0.473912
0.593364
0.693603
0.766724
0.818941
0.853994
0.874246
0.882986
0.885153
0.885198
0.885
-0.299326
-0.287427
-0.242846
-0.17104
-0.0837011
0.0125245
0.11558
0.225198
0.341119
0.463275
0.585848
0.690021
0.767181
0.823029
0.860701
0.881714
0.889259
0.889723
0.888963
0.888709
-0.319927
-0.307707
-0.262435
-0.189793
-0.101566
-0.00442571
0.0996681
0.210476
0.327849
0.451938
0.577268
0.685119
0.766447
0.826403
0.867592
0.890593
0.897548
0.895634
0.892848
0.891708
-0.339886
-0.327362
-0.281345
-0.207934
-0.118923
-0.0209865
0.0839851
0.19577
0.314345
0.440041
0.5677
0.678814
0.764305
0.828636
0.874036
0.900702
0.909292
0.906263
0.899468
0.890501
-0.359118
-0.346347
-0.29967
-0.225618
-0.135983
-0.0374406
0.0681904
0.180671
0.300146