/*--------------------------------*- C++ -*----------------------------------*\
| =========                 |                                                 |
| \\      /  F ield         | OpenFOAM: The Open Source CFD Toolbox           |
|  \\    /   O peration     | Version:  4.0                                   |
|   \\  /    A nd           | Web:      www.OpenFOAM.org                      |
|    \\/     M anipulation  |                                                 |
\*---------------------------------------------------------------------------*/
FoamFile
{
    version     2.0;
    format      ascii;
    class       volVectorField;
    location    "46";
    object      U;
}
// * * * * * * * * * * * * * * * * * * * * * * * * * * * * * * * * * * * * * //

dimensions      [0 1 -1 0 0 0 0];

internalField   nonuniform List<vector> 
8800
(
(0.980146 -0.0915212 0)
(1.00234 -0.0587272 0)
(0.999592 -0.032128 0)
(0.999987 -0.0165204 0)
(1.00007 -0.00883757 0)
(1.00007 -0.00509073 0)
(1.00004 -0.00299187 0)
(1.00002 -0.00168648 0)
(0.999997 -0.000788676 0)
(1.00006 -9.37987e-05 0)
(0.999987 0.0006109 0)
(0.999995 0.00136173 0)
(1.00001 0.00238636 0)
(1.00002 0.00399548 0)
(1.00003 0.00674811 0)
(0.999988 0.0120507 0)
(0.999787 0.0230956 0)
(0.999029 0.0431586 0)
(1.00723 0.0790272 0)
(0.775023 0.0478395 0)
(0.35898 -0.014749 0)
(1.04649 -0.07249 0)
(1.08847 -0.0660288 0)
(1.04944 -0.0509248 0)
(1.02554 -0.0377062 0)
(1.01272 -0.0259001 0)
(1.00655 -0.0167104 0)
(1.00362 -0.0102291 0)
(1.00218 -0.00560117 0)
(1.00151 -0.0020109 0)
(1.00138 0.00119744 0)
(1.00173 0.00450317 0)
(1.0027 0.00839204 0)
(1.00473 0.01371 0)
(1.00896 0.0213971 0)
(1.01794 0.0318949 0)
(1.03578 0.0446686 0)
(1.0674 0.0581101 0)
(1.0947 0.0699641 0)
(0.845634 0.0555069 0)
(0.217773 -0.00138161 0)
(1.07566 -0.0506634 0)
(1.0994 -0.0489492 0)
(1.06437 -0.0400357 0)
(1.03988 -0.032578 0)
(1.02377 -0.0253676 0)
(1.014 -0.0181583 0)
(1.0085 -0.0115431 0)
(1.00565 -0.00579028 0)
(1.00448 -0.000503832 0)
(1.00479 0.00460271 0)
(1.00664 0.0098865 0)
(1.01056 0.0158596 0)
(1.01787 0.0226272 0)
(1.03049 0.0297399 0)
(1.05048 0.0368308 0)
(1.08003 0.0446068 0)
(1.10564 0.0519334 0)
(0.943274 0.0410085 0)
(0.217203 0.00140486 0)
(0.17662 -0.000629205 0)
(1.01936 -0.0354748 0)
(1.10569 -0.0414281 0)
(1.07795 -0.0364174 0)
(1.05242 -0.0303768 0)
(1.03518 -0.0245069 0)
(1.02333 -0.0187216 0)
(1.01553 -0.0127296 0)
(1.01093 -0.0066396 0)
(1.0089 -0.000408361 0)
(1.00944 0.00574247 0)
(1.01251 0.0116534 0)
(1.01846 0.0174266 0)
(1.02805 0.0230135 0)
(1.04226 0.0285721 0)
(1.06308 0.0343579 0)
(1.09385 0.0402451 0)
(1.09442 0.0417728 0)
(0.830221 0.0227733 0)
(0.175645 0.000647748 0)
(0.154699 -0.000463145 0)
(0.958112 -0.0257052 0)
(1.10436 -0.0351418 0)
(1.08804 -0.0327023 0)
(1.06121 -0.028204 0)
(1.04316 -0.0232509 0)
(1.03079 -0.0179592 0)
(1.0222 -0.0124253 0)
(1.01667 -0.0065252 0)
(1.01402 -8.0594e-05 0)
(1.01467 0.00637331 0)
(1.01845 0.0122384 0)
(1.02523 0.0175549 0)
(1.03536 0.0225756 0)
(1.05011 0.027415 0)
(1.07205 0.0318638 0)
(1.101 0.0357452 0)
(1.0697 0.0339584 0)
(0.742592 0.0144467 0)
(0.153243 0.000483954 0)
(0.140003 -0.000335189 0)
(0.901051 -0.019345 0)
(1.09673 -0.0302592 0)
(1.09615 -0.029396 0)
(1.06889 -0.025625 0)
(1.05006 -0.0215526 0)
(1.03711 -0.0168672 0)
(1.02814 -0.0116293 0)
(1.02221 -0.00592113 0)
(1.01924 0.00041837 0)
(1.01987 0.00677957 0)
(1.02388 0.012422 0)
(1.03089 0.0174104 0)
(1.04139 0.0218938 0)
(1.05678 0.0258499 0)
(1.07958 0.0293806 0)
(1.10333 0.032106 0)
(1.03796 0.0281103 0)
(0.675833 0.0102969 0)
(0.137953 0.000359909 0)
(0.129249 -0.000253811 0)
(0.851114 -0.0149518 0)
(1.08433 -0.0261703 0)
(1.1018 -0.0265399 0)
(1.07568 -0.0232394 0)
(1.05634 -0.019603 0)
(1.04297 -0.0154229 0)
(1.03364 -0.01058 0)
(1.02744 -0.00510602 0)
(1.02425 0.00104326 0)
(1.02478 0.00718908 0)
(1.02881 0.012548 0)
(1.03599 0.0171141 0)
(1.04678 0.0209985 0)
(1.06253 0.0243558 0)
(1.08579 0.0274083 0)
(1.10259 0.0292419 0)
(1.00335 0.0235518 0)
(0.623877 0.00788872 0)
(0.126478 0.000283869 0)
(0.121045 -0.000195112 0)
(0.808539 -0.0117703 0)
(1.06896 -0.0225873 0)
(1.10527 -0.0239284 0)
(1.08188 -0.0210823 0)
(1.06209 -0.0176768 0)
(1.04845 -0.0137912 0)
(1.03886 -0.00928618 0)
(1.0324 -0.00410005 0)
(1.029 0.00180044 0)
(1.02938 0.00766194 0)
(1.03337 0.0126616 0)
(1.04061 0.01677 0)
(1.05151 0.0201878 0)
(1.06753 0.0231493 0)
(1.09118 0.0258962 0)
(1.09898 0.0268284 0)
(0.968381 0.0199556 0)
(0.582241 0.00631399 0)
(0.117396 0.00023176 0)
(0.114676 -0.000150642 0)
(0.772612 -0.00938981 0)
(1.052 -0.0194334 0)
(1.10755 -0.0215243 0)
(1.08768 -0.019076 0)
(1.06748 -0.0158452 0)
(1.05359 -0.0121364 0)
(1.04383 -0.00784276 0)
(1.03714 -0.00291181 0)
(1.0335 0.00271201 0)
(1.03369 0.00825415 0)
(1.03757 0.0128697 0)
(1.04476 0.0165847 0)
(1.05569 0.0196389 0)
(1.07196 0.0222646 0)
(1.09532 0.0246659 0)
(1.09263 0.0248062 0)
(0.934418 0.0171552 0)
(0.547931 0.00522772 0)
(0.109957 0.000195263 0)
(0.109693 -0.000115582 0)
(0.742409 -0.00754564 0)
(1.03456 -0.016635 0)
(1.10883 -0.0192573 0)
(1.09315 -0.0171312 0)
(1.07266 -0.0140072 0)
(1.05851 -0.0104127 0)
(1.04856 -0.00626992 0)
(1.04167 -0.00153668 0)
(1.03777 0.00381395 0)
(1.03771 0.00901475 0)
(1.0414 0.013251 0)
(1.04847 0.0165881 0)
(1.05941 0.0193001 0)
(1.0759 0.021641 0)
(1.09821 0.0236865 0)
(1.0839 0.0230972 0)
(0.902087 0.014993 0)
(0.518911 0.00445842 0)
(0.103677 0.000169574 0)
(0.105806 -8.6653e-05 0)
(0.717115 -0.00606028 0)
(1.01744 -0.0141218 0)
(1.10926 -0.0170723 0)
(1.09851 -0.0152476 0)
(1.07774 -0.0121596 0)
(1.06329 -0.00862331 0)
(1.05313 -0.00456581 0)
(1.04602 2.96543e-05 0)
(1.04183 0.0051354 0)
(1.04145 0.010003 0)
(1.04487 0.01389 0)
(1.05177 0.016895 0)
(1.06271 0.0192864 0)
(1.07943 0.0213475 0)
(1.0998 0.0229914 0)
(1.07321 0.0217107 0)
(0.87155 0.01336 0)
(0.493737 0.00391703 0)
(0.09821 0.000152682 0)
(0.102822 -6.16393e-05 0)
(0.696091 -0.00481338 0)
(1.00128 -0.0118183 0)
(1.10895 -0.0149124 0)
(1.10365 -0.0133242 0)
(1.08278 -0.0102409 0)
(1.06802 -0.00670935 0)
(1.0576 -0.00268613 0)
(1.05021 0.00181348 0)
(1.04566 0.00672592 0)
(1.0449 0.0112988 0)
(1.048 0.0148325 0)
(1.0547 0.0174783 0)
(1.06562 0.0195417 0)
(1.08249 0.0213464 0)
(1.1004 0.0225732 0)
(1.06087 0.0206284 0)
(0.842705 0.0121542 0)
(0.471352 0.00354279 0)
(0.0933029 0.000142217 0)
(0.100619 -3.90216e-05 0)
(0.678861 -0.00371929 0)
(0.986522 -0.00966478 0)
(1.10813 -0.012705 0)
(1.10857 -0.0112519 0)
(1.08786 -0.00813615 0)
(1.07274 -0.00456374 0)
(1.06201 -0.000534313 0)
(1.05428 0.0039057 0)
(1.04929 0.00865256 0)
(1.04805 0.0129333 0)
(1.05077 0.0161226 0)
(1.05723 0.0184157 0)
(1.06811 0.0201344 0)
(1.08508 0.0216483 0)
(1.10002 0.0225389 0)
(1.04713 0.0198582 0)
(0.815301 0.0113045 0)
(0.450941 0.00329791 0)
(0.0887607 0.000136968 0)
(0.099133 -1.67931e-05 0)
(0.665122 -0.00270701 0)
(0.97354 -0.00758332 0)
(1.1071 -0.0103983 0)
(1.11341 -0.00902398 0)
(1.09304 -0.00586556 0)
(1.07752 -0.00218932 0)
(1.06643 0.00192547 0)
(1.05826 0.0063673 0)
(1.05273 0.0109886 0)
(1.05092 0.0149908 0)
(1.05318 0.0178202 0)
(1.05935 0.0197461 0)
(1.07018 0.0211195 0)
(1.08722 0.022345 0)
(1.09853 0.0227904 0)
(1.03208 0.0193887 0)
(0.788984 0.0107509 0)
(0.431855 0.00315655 0)
(0.0844252 0.000136251 0)
(0.0983474 7.3463e-06 0)
(0.654745 -0.00172147 0)
(0.962671 -0.00549409 0)
(1.10616 -0.00789554 0)
(1.11822 -0.00650826 0)
(1.09839 -0.00326744 0)
(1.08247 0.000568917 0)
(1.07094 0.00480776 0)
(1.06223 0.00929585 0)
(1.05603 0.0138323 0)
(1.05352 0.0175697 0)
(1.05522 0.0200258 0)
(1.06105 0.0215419 0)
(1.07177 0.0225 0)
(1.08878 0.0234036 0)
(1.09584 0.0233801 0)
(1.01579 0.0192212 0)
(0.763405 0.010458 0)
(0.413579 0.00310154 0)
(0.0801752 0.000138926 0)
(0.0982907 2.91553e-05 0)
(0.647737 -0.00071496 0)
(0.954246 -0.00332618 0)
(1.1057 -0.00514223 0)
(1.12322 -0.00362064 0)
(1.10401 -0.000221279 0)
(1.08761 0.00382928 0)
(1.07556 0.00824035 0)
(1.06621 0.0128308 0)
(1.0592 0.0172954 0)
(1.05584 0.0207378 0)
(1.05685 0.0227815 0)
(1.06225 0.0238486 0)
(1.07287 0.0243587 0)
(1.08964 0.0248852 0)
(1.09176 0.0243418 0)
(0.998251 0.0193933 0)
(0.738151 0.0104097 0)
(0.395642 0.00312724 0)
(0.0758926 0.000145282 0)
(0.0989919 6.61348e-05 0)
(0.644163 0.000321092 0)
(0.94856 -0.00101158 0)
(1.10606 -0.00206663 0)
(1.12858 -0.000330228 0)
(1.10997 0.00327019 0)
(1.09304 0.00762059 0)
(1.08035 0.0123122 0)
(1.07021 0.0170743 0)
(1.06218 0.0215129 0)
(1.0578 0.0246717 0)
(1.058 0.0262693 0)
(1.0629 0.0268435 0)
(1.07339 0.0268751 0)
(1.08961 0.0269396 0)
(1.08616 0.0257442 0)
(0.97929 0.0199107 0)
(0.71278 0.0105951 0)
(0.37761 0.00322845 0)
(0.0714703 0.000154942 0)
(0.100666 9.47189e-05 0)
(0.644437 0.00150512 0)
(0.94598 0.00154464 0)
(1.10759 0.00147881 0)
(1.13443 0.00353532 0)
(1.11639 0.00745811 0)
(1.09891 0.0122089 0)
(1.08544 0.0172464 0)
(1.07431 0.0222315 0)
(1.06506 0.0266601 0)
(1.05941 0.0294969 0)
(1.05864 0.0305672 0)
(1.06292 0.0305764 0)
(1.07321 0.0300752 0)
(1.08845 0.0296199 0)
(1.07886 0.0275902 0)
(0.958737 0.0208016 0)
(0.686835 0.0110143 0)
(0.359068 0.00340152 0)
(0.06681 0.000167351 0)
(0.103376 0.000142178 0)
(0.648944 0.00296305 0)
(0.947016 0.00447125 0)
(1.1109 0.00555462 0)
(1.14103 0.00814556 0)
(1.12343 0.0125647 0)
(1.10527 0.017785 0)
(1.09087 0.0232379 0)
(1.07852 0.0285142 0)
(1.06777 0.0329331 0)
(1.06059 0.0353816 0)
(1.05866 0.0358531 0)
(1.0622 0.0352038 0)
(1.07224 0.0340815 0)
(1.08602 0.0330126 0)
(1.06962 0.030017 0)
(0.936286 0.0221273 0)
(0.659796 0.0116817 0)
(0.339597 0.00365055 0)
(0.061813 0.000182953 0)
(0.107391 0.000203004 0)
(0.658182 0.00465023 0)
(0.952099 0.00792558 0)
(1.11642 0.0103319 0)
(1.14868 0.0135901 0)
(1.13127 0.0186474 0)
(1.11229 0.024493 0)
(1.09675 0.0305145 0)
(1.08292 0.0361574 0)
(1.07034 0.0405768 0)
(1.06134 0.0425612 0)
(1.058 0.0423183 0)
(1.06059 0.0409225 0)
(1.07032 0.0391063 0)
(1.08221 0.0373027 0)
(1.05814 0.0331267 0)
(0.911522 0.0239345 0)
(0.631092 0.012614 0)
(0.318755 0.00397427 0)
(0.0563842 0.000200765 0)
(0.113045 0.000285811 0)
(0.672821 0.00675753 0)
(0.961909 0.0120905 0)
(1.12465 0.0160806 0)
(1.15762 0.0202282 0)
(1.14016 0.0261305 0)
(1.12016 0.032775 0)
(1.10314 0.0394882 0)
(1.08739 0.0455358 0)
(1.07255 0.0498961 0)
(1.06141 0.0512814 0)
(1.05648 0.0501741 0)
(1.05797 0.0478961 0)
(1.06725 0.045292 0)
(1.07687 0.0426084 0)
(1.04398 0.0370214 0)
(0.883966 0.0262947 0)
(0.600072 0.0138211 0)
(0.296089 0.00436731 0)
(0.0504408 0.000219794 0)
(0.120833 0.000402291 0)
(0.693871 0.0095106 0)
(0.977338 0.0172854 0)
(1.13634 0.0231353 0)
(1.1684 0.0284956 0)
(1.15042 0.0355476 0)
(1.12907 0.043141 0)
(1.11017 0.0506069 0)
(1.0921 0.0570417 0)
(1.07456 0.0612045 0)
(1.06085 0.0617927 0)
(1.05399 0.0596294 0)
(1.05425 0.0563118 0)
(1.06296 0.0527694 0)
(1.06969 0.0491387 0)
(1.02667 0.0418585 0)
(0.852945 0.02927 0)
(0.565996 0.0153073 0)
(0.271157 0.00481578 0)
(0.0439291 0.000237713 0)
(0.131542 0.000576804 0)
(0.722636 0.0132351 0)
(0.999416 0.0239217 0)
(1.15221 0.0319457 0)
(1.18168 0.0388183 0)
(1.16236 0.0473624 0)
(1.13913 0.0561106 0)
(1.11775 0.0644215 0)
(1.0967 0.0711617 0)
(1.07587 0.0748939 0)
(1.05925 0.0743943 0)
(1.05026 0.0709317 0)
(1.04919 0.0664136 0)
(1.05728 0.061743 0)
(1.06034 0.0569205 0)
(1.00557 0.047791 0)
(0.81767 0.0329443 0)
(0.528032 0.0170771 0)
(0.24355 0.00529867 0)
(0.0368487 0.000251282 0)
(0.146402 0.00085148 0)
(0.761025 0.0185513 0)
(1.0297 0.0327806 0)
(1.1731 0.0434472 0)
(1.1981 0.0522568 0)
(1.17633 0.0626251 0)
(1.15047 0.0727002 0)
(1.12584 0.0817816 0)
(1.10111 0.0885055 0)
(1.07646 0.0913462 0)
(1.05653 0.0893036 0)
(1.04517 0.0842304 0)
(1.04261 0.0783575 0)
(1.04975 0.0724423 0)
(1.04825 0.0663118 0)
(0.979926 0.0549497 0)
(0.777223 0.0373887 0)
(0.485289 0.0191033 0)
(0.212954 0.00578193 0)
(0.0292646 0.000257736 0)
(0.167541 0.00132458 0)
(0.812144 0.0266217 0)
(1.07082 0.0454233 0)
(1.20012 0.0595203 0)
(1.21835 0.0710288 0)
(1.19254 0.08309 0)
(1.16292 0.0943017 0)
(1.13403 0.103627 0)
(1.10484 0.109672 0)
(1.07582 0.110941 0)
(1.05232 0.10681 0)
(1.03853 0.099739 0)
(1.03443 0.0922751 0)
(1.04013 0.0852224 0)
(1.03288 0.0774895 0)
(0.948812 0.0634178 0)
(0.730573 0.0425489 0)
(0.437043 0.0212759 0)
(0.179394 0.00620556 0)
(0.0213413 0.000253774 0)
(0.198323 0.00237791 0)
(0.881593 0.0401975 0)
(1.12608 0.0657033 0)
(1.23377 0.0836442 0)
(1.24229 0.0978461 0)
(1.21036 0.111088 0)
(1.17558 0.122475 0)
(1.14143 0.130937 0)
(1.10715 0.135239 0)
(1.07341 0.133974 0)
(1.04623 0.127055 0)
(1.03002 0.117604 0)
(1.0245 0.108312 0)
(1.02849 0.099914 0)
(1.01361 0.0903328 0)
(0.910966 0.0729082 0)
(0.676807 0.0480941 0)
(0.383485 0.02341 0)
(0.143913 0.00652582 0)
(0.013495 0.000234641 0)
(0.240252 0.00858482 4.37644e-20)
(0.973336 0.0673795 3.826e-20)
(1.19323 0.0997611 -1.33968e-20)
(1.27115 0.119365 0)
(1.26727 0.136172 -3.43975e-34)
(1.22775 0.148778 5.03383e-21)
(1.18701 0.158638 -9.10248e-21)
(1.14708 0.164922 0)
(1.10731 0.166482 1.8744e-34)
(1.06847 0.161942 -1.1313e-20)
(1.03727 0.151789 0)
(1.01834 0.139763 -1.34412e-20)
(1.01127 0.128662 -3.9649e-20)
(1.01341 0.119181 -1.87407e-20)
(0.988074 0.107914 -5.64039e-21)
(0.86196 0.0859422 -3.35278e-21)
(0.609856 0.0552327 0)
(0.322069 0.0260541 2.3491e-21)
(0.107141 0.00736072 2.77431e-21)
(0.00612597 0.000343812 4.99186e-20)
(0.269535 0.0239615 3.14339e-20)
(1.04887 0.109901 5.22236e-22)
(1.24824 0.148447 3.55195e-21)
(1.30475 0.168128 0)
(1.28915 0.184688 -1.74339e-20)
(1.24259 0.195173 -1.98485e-20)
(1.19589 0.202834 -9.18441e-21)
(1.15 0.206742 -3.28206e-20)
(1.10435 0.205548 0)
(1.05976 0.197803 4.82915e-20)
(1.02368 0.184423 4.79331e-20)
(1.00131 0.169832 1.4268e-20)
(0.9917 0.156706 5.20232e-20)
(0.988643 0.145114 7.30972e-20)
(0.949461 0.130506 0)
(0.797167 0.102377 1.0322e-19)
(0.531804 0.0639577 1.48229e-19)
(0.258114 0.029187 1.64713e-19)
(0.072314 0.0078793 -1.88404e-19)
(-0.000704623 3.51503e-05 -3.53833e-21)
(0.270543 0.0396548 0)
(1.09647 0.165142 5.41039e-21)
(1.28514 0.208419 0)
(1.33077 0.227618 -2.23385e-20)
(1.30622 0.24103 0)
(1.25377 0.247796 -3.89351e-20)
(1.20149 0.251907 1.87732e-20)
(1.14991 0.252361 -6.60533e-20)
(1.09858 0.247597 -1.56418e-21)
(1.04841 0.236114 2.50396e-20)
(1.00755 0.21931 1.05808e-19)
(0.981788 0.202114 -2.88226e-22)
(0.969736 0.187146 -3.7911e-20)
(0.962044 0.173659 -6.92388e-20)
(0.913523 0.1553 8.20615e-20)
(0.751273 0.120206 -1.45392e-19)
(0.489512 0.07407 -1.92456e-20)
(0.232145 0.0337407 0)
(0.0614369 0.00877506 -6.45374e-25)
(-0.00279295 -0.000380222 0)
(0.264355 0.0532882 6.64278e-20)
(1.12212 0.223763 -3.31403e-20)
(1.30798 0.273082 -2.6412e-20)
(1.34786 0.292363 1.04649e-20)
(1.3171 0.301869 -1.76899e-20)
(1.26026 0.304312 8.16998e-20)
(1.20333 0.30418 3.92477e-20)
(1.14677 0.300542 0)
(1.09034 0.291757 -1.25444e-19)
(1.03505 0.276328 0)
(0.989733 0.256216 -5.56654e-20)
(0.96061 0.23659 -6.88437e-20)
(0.945773 0.219674 -4.14458e-20)
(0.934004 0.203769 -5.04587e-20)
(0.881623 0.18163 0)
(0.719878 0.140714 0)
(0.470214 0.0880332 -1.25928e-19)
(0.229067 0.041771 2.4932e-20)
(0.0636863 0.0113634 -1.45858e-20)
(-0.00241401 -0.000482774 -1.70559e-20)
(0.257131 0.0654044 -2.32319e-20)
(1.13352 0.282298 0)
(1.32065 0.3388 5.23998e-20)
(1.35707 0.358637 2.91407e-20)
(1.3219 0.364299 4.1272e-20)
(1.26183 0.362381 0)
(1.20122 0.357874 3.83089e-20)
(1.14055 0.349991 7.3283e-20)
(1.07977 0.337073 6.42609e-20)
(1.01997 0.317589 1.18615e-19)
(0.970584 0.293859 0)
(0.938204 0.271401 -1.48883e-19)
(0.920424 0.252325 -8.98277e-20)
(0.905436 0.234635 -5.31247e-20)
(0.851242 0.209838 3.27425e-19)
(0.696706 0.164099 3.90429e-20)
(0.463351 0.105626 1.83654e-19)
(0.236562 0.052852 -8.68998e-19)
(0.0733412 0.0162464 5.15111e-19)
(0.000231338 2.8085e-05 -6.20803e-19)
(0.250309 0.0763986 -6.86598e-21)
(1.13589 0.338906 4.12229e-21)
(1.32594 0.403608 -5.22188e-21)
(1.36002 0.424404 -2.81422e-20)
(1.32159 0.426503 -3.40673e-20)
(1.25905 0.420362 1.77912e-21)
(1.19552 0.411645 -4.15783e-20)
(1.1315 0.399654 7.58075e-20)
(1.06702 0.38269 -1.3852e-19)
(1.00319 0.359053 0)
(0.950003 0.331381 -6.74088e-20)
(0.914635 0.305907 -1.61733e-21)
(0.894419 0.285055 -9.84786e-20)
(0.877257 0.266442 0)
(0.822297 0.238972 -7.10735e-20)
(0.676751 0.189225 -1.69183e-19)
(0.461063 0.125286 4.53246e-19)
(0.247118 0.0663367 -4.46003e-19)
(0.0852344 0.0229406 6.33536e-19)
(0.00375536 0.00104035 -6.58308e-19)
(0.244676 0.0866182 -4.10716e-22)
(1.13267 0.392927 -5.17325e-23)
(1.32588 0.466487 -1.1948e-20)
(1.35808 0.488484 1.05852e-20)
(1.31718 0.487384 -1.70289e-20)
(1.25274 0.477292 0)
(1.18687 0.464662 -3.83883e-20)
(1.12009 0.448835 -7.93375e-20)
(1.05239 0.427998 -7.19516e-20)
(0.984879 0.400249 0)
(0.928178 0.368805 -6.99597e-20)
(0.890191 0.340885 -8.69018e-20)
(0.86816 0.318889 1.0697e-19)
(0.849085 0.299089 -6.51443e-20)
(0.793605 0.268247 -3.10883e-19)
(0.6575 0.21467 1.85575e-19)
(0.458427 0.146141 5.56038e-20)
(0.256357 0.0810816 0)
(0.0961597 0.0306527 -6.13846e-19)
(0.00724205 0.00239693 -2.2519e-20)
(0.2403 0.0963715 2.22011e-21)
(1.12607 0.444165 -2.71122e-21)
(1.3219 0.526956 5.07898e-21)
(1.35242 0.550188 3.88796e-20)
(1.3096 0.546271 -6.13956e-20)
(1.24369 0.532611 7.59137e-20)
(1.17595 0.516435 8.27056e-20)
(1.10684 0.497087 -1.26738e-19)
(1.03629 0.472599 4.46784e-20)
(0.965413 0.44096 -2.92188e-19)
(0.905579 0.406276 -7.92849e-20)
(0.865381 0.376542 0)
(0.841655 0.353412 1.16065e-19)
(0.820202 0.331338 1.39305e-19)
(0.764007 0.296697 1.67225e-19)
(0.637662 0.239735 -2.01787e-19)
(0.453153 0.167365 -5.98051e-20)
(0.261395 0.0961555 7.03e-20)
(0.104024 0.0385234 0)
(0.0100724 0.00384899 -4.88962e-20)
(0.237062 0.105813 -4.64966e-20)
(1.11766 0.492728 2.31507e-20)
(1.3153 0.585287 -3.71887e-21)
(1.34401 0.609198 2.2415e-20)
(1.29961 0.602799 -2.67152e-20)
(1.23259 0.585962 -4.0548e-21)
(1.16335 0.566648 -9.0455e-20)
(1.09224 0.5441 -4.58774e-20)
(1.0191 0.516199 -1.25084e-19)
(0.945206 0.48101 2.61488e-22)
(0.88265 0.443551 -2.47908e-19)
(0.840478 0.41204 2.09912e-19)
(0.814785 0.386975 -1.27549e-19)
(0.790522 0.361555 1.53637e-19)
(0.734151 0.32311 0)
(0.616393 0.263381 -1.09405e-19)
(0.444437 0.187375 -3.32644e-22)
(0.261595 0.109966 -3.06011e-19)
(0.107758 0.0454342 -4.50378e-20)
(0.0118084 0.00507879 0)
(0.234825 0.115063 0)
(1.10837 0.538823 2.83041e-20)
(1.30668 0.640735 3.55351e-21)
(1.33357 0.665378 -1.91878e-20)
(1.28786 0.656785 -3.50379e-20)
(1.22001 0.637161 0)
(1.14956 0.615077 -4.05127e-20)
(1.07667 0.589624 -1.12843e-21)
(1.00122 0.558584 2.67872e-19)
(0.92462 0.520192 -4.00215e-20)
(0.859637 0.480115 -1.79003e-19)
(0.815507 0.446293 1.09011e-19)
(0.787463 0.418258 -2.13839e-21)
(0.760315 0.388911 1.6312e-19)
(0.704311 0.346965 1.01054e-19)
(0.594039 0.284881 -2.36218e-19)
(0.432517 0.205104 2.80042e-19)
(0.257214 0.121527 8.28578e-20)
(0.107355 0.0506622 3.41506e-19)
(0.012465 0.00591853 -9.13742e-19)
(0.233529 0.124255 -1.85673e-20)
(1.09882 0.582638 2.32098e-20)
(1.29691 0.693284 -1.41974e-20)
(1.32169 0.718695 1.22707e-20)
(1.2749 0.708139 0)
(1.20642 0.68609 -3.34295e-20)
(1.13497 0.661567 1.36423e-19)
(1.06051 0.633481 1.00071e-19)
(0.98295 0.599586 0)
(0.903901 0.558292 -5.76487e-19)
(0.836614 0.515469 4.83624e-19)
(0.790406 0.47862 0)
(0.759817 0.446886 1.48791e-19)
(0.73008 0.413704 -2.11555e-21)
(0.674804 0.368984 -3.22063e-19)
(0.570367 0.304283 1.26249e-19)
(0.417331 0.220282 0)
(0.248565 0.130414 4.46648e-19)
(0.103661 0.053872 0)
(0.0121395 0.0062593 -4.31837e-19)
(0.232989 0.133455 2.32384e-20)
(1.08953 0.624266 3.28199e-20)
(1.28618 0.743011 -1.3433e-20)
(1.30887 0.769142 0)
(1.26116 0.75685 -2.7512e-20)
(1.19223 0.732698 0)
(1.11992 0.706008 -1.33451e-19)
(1.04404 0.675544 -4.59817e-20)
(0.964573 0.639099 4.69356e-20)
(0.883231 0.595143 -2.84978e-19)
(0.813598 0.549329 4.98306e-20)
(0.765146 0.508853 0)
(0.732036 0.47312 -3.17308e-19)
(0.700212 0.436445 2.10524e-21)
(0.645749 0.389203 0)
(0.545653 0.321302 1.83533e-21)
(0.398948 0.232214 4.07374e-19)
(0.236029 0.136098 -3.85603e-19)
(0.0969961 0.0550506 1.13554e-19)
(0.0110178 0.00613663 0)
(0.232873 0.142523 0)
(1.08066 0.663839 4.13545e-20)
(1.2749 0.790064 2.37318e-20)
(1.29552 0.816762 -2.43261e-21)
(1.24698 0.80294 -7.5659e-21)
(1.17772 0.776959 -7.43521e-20)
(1.10468 0.748343 5.01557e-20)
(1.02753 0.715749 -5.45495e-20)
(0.946313 0.677054 2.09711e-19)
(0.86274 0.630651 -4.54453e-19)
(0.79061 0.581631 -3.55541e-21)
(0.73974 0.537184 -1.38633e-19)
(0.704252 0.497425 5.14456e-19)
(0.670812 0.457507 -2.45755e-21)
(0.616973 0.407482 -2.49205e-19)
(0.519816 0.335544 -4.45723e-19)
(0.377898 0.240782 0)
(0.220192 0.138539 0)
(0.0880285 0.0542296 1.2265e-19)
(0.00944655 0.00565164 -7.18862e-20)
(0.233307 0.151586 3.47483e-20)
(1.07224 0.701192 -9.61285e-20)
(1.26339 0.8345 -2.56765e-20)
(1.28194 0.861631 0)
(1.23265 0.846456 -1.56845e-21)
(1.16315 0.818873 -6.57776e-20)
(1.08949 0.788545 1.19582e-19)
(1.01119 0.754069 2.13204e-19)
(0.928356 0.713437 2.71666e-19)
(0.842553 0.66479 -3.70361e-19)
(0.767717 0.612484 -4.14054e-19)
(0.714234 0.563963 3.70451e-19)
(0.676505 0.520241 0)
(0.641754 0.477086 -1.12965e-19)
(0.5882 0.423763 -2.69521e-19)
(0.492836 0.347001 -3.19811e-19)
(0.35452 0.245873 -3.79535e-19)
(0.201709 0.137758 1.12202e-19)
(0.0771845 0.0513911 -6.59988e-20)
(0.00749392 0.00479081 2.52897e-22)
(0.233838 0.16054 0)
(1.06444 0.736863 0)
(1.25187 0.876432 2.5873e-21)
(1.26834 0.903858 0)
(1.21838 0.887476 1.0948e-20)
(1.1487 0.858477 4.26056e-20)
(1.07451 0.826623 0)
(0.995199 0.790516 2.49991e-20)
(0.910861 0.748249 4.51738e-19)
(0.822795 0.697582 -8.50713e-19)
(0.745023 0.642077 0)
(0.688702 0.58956 -2.37983e-19)
(0.648764 0.541899 -2.97624e-21)
(0.612839 0.495253 -2.37866e-21)
(0.559287 0.437936 2.87566e-19)
(0.464877 0.355502 -3.32933e-22)
(0.328786 0.247309 -8.16368e-19)
(0.181108 0.133689 2.41202e-19)
(0.0655396 0.0469445 7.12725e-20)
(0.0054241 0.00369359 0)
(0.234383 0.169317 -1.44245e-19)
(1.05696 0.770818 -6.80334e-20)
(1.24039 0.915918 -8.39542e-20)
(1.25489 0.943548 6.76317e-20)
(1.20433 0.926064 3.33332e-21)
(1.13455 0.895818 0)
(1.0599 0.862613 7.06802e-20)
(0.979695 0.825119 -5.577e-20)
(0.893951 0.781515 3.85248e-21)
(0.803595 0.729086 6.26718e-20)
(0.722661 0.670619 5.34506e-19)
(0.663232 0.614312 -8.33684e-20)
(0.62096 0.562666 -3.16148e-19)
(0.5838 0.512004 -1.31329e-19)
(0.530022 0.449723 1.56379e-19)
(0.4361 0.360617 -1.46388e-22)
(0.301865 0.244903 2.19846e-19)
(0.159709 0.126759 -5.18501e-19)
(0.0538072 0.0413216 6.12895e-19)
(0.00338743 0.00246971 8.9362e-20)
(0.23478 0.177796 5.56502e-20)
(1.04982 0.803168 -3.89575e-20)
(1.22909 0.953069 6.24852e-21)
(1.2417 0.980823 4.83151e-20)
(1.19063 0.962321 6.12076e-21)
(1.12077 0.930956 -7.16349e-20)
(1.04576 0.896566 1.97728e-20)
(0.964788 0.857915 -2.31546e-19)
(0.877735 0.813249 -4.94957e-19)
(0.785069 0.759346 -5.05157e-19)
(0.700785 0.698292 0)
(0.637925 0.638495 -3.65657e-19)
(0.593018 0.582793 4.5505e-19)
(0.554296 0.527352 0)
(0.500066 0.45877 -3.34485e-19)
(0.406613 0.361793 1.99982e-19)
(0.274592 0.238407 -2.36054e-19)
(0.13883 0.117396 -2.78851e-19)
(0.042881 0.0350769 -4.93378e-19)
(0.00155364 0.00124806 -3.84635e-19)
(0.235481 0.186114 -6.37627e-20)
(1.04289 0.833889 4.17005e-20)
(1.21802 0.98796 9.40821e-20)
(1.22885 1.01577 7.35673e-20)
(1.17735 0.996332 -9.29482e-21)
(1.10748 0.963972 -3.54736e-20)
(1.03219 0.928541 6.63186e-20)
(0.950558 0.888961 -2.36425e-19)
(0.862284 0.843488 -2.92206e-19)
(0.767329 0.788418 5.26952e-19)
(0.679542 0.72524 1.17061e-18)
(0.612908 0.662343 0)
(0.564878 0.602534 0)
(0.523928 0.541434 -1.51097e-19)
(0.468833 0.464764 0)
(0.376291 0.358141 4.30115e-19)
(0.248066 0.227107 5.07663e-19)
(0.120389 0.105771 0)
(0.0340215 0.0287951 0)
(7.71508e-05 0.000202223 4.13123e-19)
(0.235808 0.193964 7.34786e-20)
(1.03618 0.862971 5.91519e-20)
(1.20724 1.02071 6.88766e-20)
(1.2164 1.04851 -7.46741e-20)
(1.16457 1.0282 -1.74308e-20)
(1.09471 0.994941 3.19982e-20)
(1.01925 0.958609 -8.99792e-20)
(0.937061 0.918297 -3.88345e-23)
(0.847665 0.87225 -4.99732e-21)
(0.750468 0.816333 -5.26054e-21)
(0.6591 0.751558 6.02129e-19)
(0.588338 0.686025 0)
(0.536564 0.622173 4.59287e-19)
(0.492328 0.554562 3.21763e-19)
(0.435413 0.467688 7.79739e-19)
(0.344376 0.348525 2.31351e-19)
(0.223261 0.208865 -2.73429e-19)
(0.108159 0.0898357 -1.60555e-19)
(0.0321487 0.0216465 0)
(0.000530186 -0.000102066 4.43666e-19)
(0.23642 0.201804 -1.67695e-19)
(1.02967 0.890508 0)
(1.19673 1.05138 8.31769e-20)
(1.20438 1.07913 -6.48912e-20)
(1.15231 1.05802 3.02113e-20)
(1.08252 1.02395 -2.62076e-20)
(1.00696 0.986838 1.70036e-19)
(0.924329 0.945973 -1.97889e-20)
(0.833914 0.899557 0)
(0.734566 0.843094 -5.78602e-19)
(0.639611 0.777285 -1.30546e-18)
(0.564408 0.709678 5.36291e-20)
(0.508216 0.641988 6.31629e-19)
(0.459277 0.567238 0)
(0.398657 0.468162 5.25632e-19)
(0.308605 0.33229 0)
(0.198406 0.179149 0)
(0.105661 0.0573825 -1.73789e-19)
(0.0571875 0.002651 0)
(0.0278495 0.0115324 1.18859e-19)
(0.236643 0.209024 -1.89141e-19)
(1.02333 0.916845 0)
(1.1865 1.08016 1.40147e-19)
(1.19272 1.10786 0)
(1.14055 1.08605 -2.04667e-20)
(1.07084 1.05129 0)
(0.995289 1.01355 7.69102e-21)
(0.912269 0.972335 3.20729e-20)
(0.820915 0.92578 3.63976e-20)
(0.719479 0.869111 -6.32907e-19)
(0.620935 0.802871 3.90199e-20)
(0.54094 0.7339 4.31336e-19)
(0.479505 0.662663 6.154e-19)
(0.424005 0.580252 8.31495e-20)
(0.356689 0.467788 4.11558e-19)
(0.264362 0.31078 0)
(0.162103 0.135602 5.77252e-19)
(0.084729 0.00268165 -3.3814e-19)
(0.0434872 0.0449109 3.91727e-19)
(-0.0690686 0.433377 -4.61794e-19)
(0.236838 0.216027 1.5767e-19)
(1.01691 0.941778 2.40749e-19)
(1.17645 1.10738 0)
(1.18131 1.13514 5.15606e-21)
(1.1291 1.11286 6.42876e-20)
(1.05942 1.07765 6.69507e-21)
(0.98392 1.03956 5.60887e-20)
(0.900487 0.998325 0)
(0.808157 0.95201 2.3932e-19)
(0.704561 0.89568 -3.28158e-20)
(0.602176 0.829753 0)
(0.516759 0.760372 0)
(0.448795 0.685862 5.49623e-19)
(0.384569 0.594755 -2.56849e-19)
(0.306447 0.468943 -4.15992e-19)
(0.20674 0.288592 0)
(0.0942182 0.130572 2.90826e-19)
(0.00566246 0.438796 -3.3668e-19)
(0.0345726 1.88382 -1.84087e-19)
(0.0641364 2.80821 -2.35523e-19)
(0.236858 0.222181 -1.19553e-19)
(1.01062 0.965481 -3.11182e-19)
(1.16659 1.13302 8.4604e-20)
(1.17013 1.16083 6.74797e-20)
(1.11799 1.13823 0)
(1.04833 1.10275 -6.94832e-21)
(0.973049 1.06454 7.22548e-20)
(0.889164 1.02352 -1.52452e-20)
(0.795896 0.977736 3.56833e-20)
(0.690184 0.922205 6.00378e-19)
(0.583933 0.857298 6.55649e-19)
(0.492828 0.788717 4.79804e-19)
(0.417043 0.711497 5.5102e-19)
(0.342707 0.609581 -6.00608e-19)
(0.25381 0.474686 -6.26406e-19)
(0.136856 0.320996 0)
(0.0477713 0.829333 0)
(0.104168 2.54746 1.60242e-19)
(0.105104 3.19869 0)
(0.10812 3.38705 3.82608e-19)
(0.239426 0.227792 0)
(1.00507 0.988136 0)
(1.1567 1.15694 0)
(1.15894 1.18471 2.09105e-20)
(1.10691 1.16193 6.06638e-20)
(1.03734 1.12645 -1.88836e-20)
(0.962575 1.08842 4.46243e-20)
(0.878256 1.04782 -1.47094e-20)
(0.784096 1.00283 2.95325e-19)
(0.676381 0.948554 -9.57158e-21)
(0.566361 0.885409 1.29056e-18)
(0.469507 0.81879 -5.52189e-20)
(0.384555 0.740512 6.64753e-20)
(0.300971 0.622258 8.66135e-20)
(0.191468 0.490708 -3.43499e-21)
(0.106129 0.962024 1.81791e-21)
(0.14413 2.7116 -8.38247e-19)
(0.153388 3.2909 -3.15649e-19)
(0.141522 3.42618 1.63033e-19)
(0.127983 3.44862 -1.80975e-19)
(0.156989 0.184113 7.16064e-20)
(0.994149 1.0125 0)
(1.14647 1.17938 -1.74183e-19)
(1.14829 1.20724 -1.85033e-19)
(1.09669 1.18477 1.51674e-19)
(1.02737 1.14943 2.52286e-20)
(0.952475 1.11122 -4.34083e-20)
(0.867891 1.07133 1.56974e-19)
(0.772937 1.02743 -2.39915e-19)
(0.663435 0.974897 0)
(0.549857 0.914289 6.31748e-19)
(0.447388 0.850473 -3.89581e-19)
(0.351773 0.775911 0)
(0.255707 0.63643 8.02308e-20)
(0.156337 0.786041 1.92337e-19)
(0.158927 2.47968 -2.2705e-19)
(0.219229 3.3233 2.55204e-19)
(0.197985 3.4406 1.37109e-19)
(0.164286 3.46217 1.54786e-19)
(0.141885 3.47244 2.4435e-19)
(0.282608 0.266412 -1.30138e-19)
(0.978945 1.02237 0)
(1.12833 1.20467 1.90575e-19)
(1.13366 1.23966 2.08909e-19)
(1.07998 1.21793 -1.73725e-19)
(1.01011 1.18287 -4.96008e-20)
(0.934349 1.14618 2.91771e-20)
(0.849409 1.10762 1.2348e-20)
(0.7532 1.06578 2.25514e-19)
(0.640821 1.01655 5.11248e-19)
(0.521908 0.961449 3.53641e-20)
(0.409869 0.903752 3.43966e-19)
(0.293634 0.829121 6.15888e-20)
(0.217149 0.957365 -7.84613e-20)
(0.233354 2.3294 -1.79637e-19)
(0.295633 3.32699 1.71198e-19)
(0.278622 3.47149 -1.88554e-19)
(0.242708 3.49306 -1.09082e-19)
(0.204983 3.52057 -8.95979e-20)
(0.153118 3.51416 -1.06306e-20)
(0.27045 0.263196 0)
(0.976599 1.04507 5.63127e-20)
(1.12033 1.22817 -3.97149e-20)
(1.12362 1.26323 -2.53197e-20)
(1.06964 1.24118 -1.22703e-19)
(0.999855 1.20624 5.35627e-20)
(0.923812 1.1697 -1.03784e-20)
(0.838773 1.132 1.08476e-20)
(0.742098 1.09155 -2.32806e-19)
(0.628477 1.04481 -1.40706e-20)
(0.507022 0.994044 -1.13231e-18)
(0.390958 0.941601 4.89278e-20)
(0.28253 0.897232 -5.79521e-20)
(0.258036 1.48501 -7.22598e-20)
(0.333461 3.09493 1.78518e-20)
(0.354571 3.46986 7.36751e-22)
(0.313674 3.52658 2.64124e-19)
(0.27592 3.5524 1.2617e-19)
(0.226835 3.57579 -2.54043e-20)
(0.167409 3.57155 -4.6862e-20)
(0.253956 0.261472 1.43991e-19)
(0.972628 1.0704 3.85993e-19)
(1.11187 1.25383 -1.14303e-19)
(1.11301 1.28822 -9.5851e-20)
(1.05878 1.26578 0)
(0.989177 1.23076 1.07014e-19)
(0.913155 1.19447 2.69581e-22)
(0.828279 1.15761 9.23912e-21)
(0.731435 1.11862 -2.59775e-20)
(0.617076 1.07458 -4.55818e-19)
(0.493867 1.02846 -5.19132e-19)
(0.375595 0.981699 -3.99512e-19)
(0.282239 1.02715 -4.36048e-19)
(0.326475 2.18674 4.50999e-19)
(0.419801 3.37755 3.73443e-19)
(0.398623 3.52865 0)
(0.352537 3.57315 0)
(0.314176 3.61394 -1.85318e-20)
(0.262494 3.67446 0)
(0.17943 3.65024 -1.2616e-20)
(0.242969 0.263189 -2.17267e-19)
(0.966664 1.09678 -3.29692e-19)
(1.10198 1.28069 0)
(1.10107 1.31401 6.15224e-21)
(1.04668 1.29098 -1.3703e-19)
(0.977385 1.25576 1.79535e-19)
(0.901729 1.21977 9.23366e-21)
(0.817212 1.18365 4.29809e-21)
(0.720424 1.14602 -1.59448e-19)
(0.605718 1.10467 2.24511e-20)
(0.48158 1.06333 0)
(0.361897 1.02525 0)
(0.307546 1.27769 -3.95815e-19)