/*--------------------------------*- C++ -*----------------------------------*\
| =========                 |                                                 |
| \\      /  F ield         | OpenFOAM: The Open Source CFD Toolbox           |
|  \\    /   O peration     | Version:  4.0                                   |
|   \\  /    A nd           | Web:      www.OpenFOAM.org                      |
|    \\/     M anipulation  |                                                 |
\*---------------------------------------------------------------------------*/
FoamFile
{
    version     2.0;
    format      ascii;
    class       volScalarField;
    location    "63";
    object      p;
}
// * * * * * * * * * * * * * * * * * * * * * * * * * * * * * * * * * * * * * //

dimensions      [0 2 -2 0 0 0 0];

internalField   nonuniform List<scalar> 
2200
(
0.772282
0.750784
0.734879
0.719213
0.704607
0.692095
0.681749
0.67366
0.667977
0.665053
0.665575
0.669416
0.675766
0.684335
0.695021
0.707799
0.722595
0.73853
0.754577
0.776074
0.704698
0.70144
0.698517
0.694403
0.688948
0.682481
0.675872
0.669933
0.665446
0.663091
0.663591
0.666936
0.67214
0.678619
0.685617
0.692377
0.698043
0.702136
0.704982
0.708346
0.66476
0.664981
0.667044
0.668393
0.668789
0.667945
0.665977
0.663316
0.660794
0.659334
0.659917
0.662391
0.665702
0.668946
0.671292
0.672296
0.672033
0.671044
0.66941
0.669161
0.642266
0.643718
0.646317
0.648774
0.651222
0.65325
0.654417
0.654667
0.654322
0.654066
0.654748
0.656162
0.657382
0.657793
0.657122
0.655455
0.653299
0.651117
0.648507
0.647102
0.627896
0.629869
0.63269
0.635531
0.638399
0.641242
0.643714
0.645593
0.646847
0.647689
0.648464
0.648974
0.648769
0.647688
0.64585
0.643495
0.640952
0.638224
0.635426
0.633504
0.620516
0.622114
0.624322
0.62686
0.629539
0.632223
0.634837
0.637285
0.639336
0.640887
0.641804
0.641872
0.641078
0.639592
0.63772
0.635598
0.633287
0.630951
0.628853
0.627279
0.617066
0.618088
0.619362
0.621235
0.62339
0.625571
0.627787
0.63011
0.63237
0.634265
0.635355
0.635432
0.634703
0.633538
0.63217
0.63063
0.628944
0.627375
0.626266
0.625249
0.614372
0.615041
0.615677
0.616988
0.618616
0.620324
0.622104
0.624063
0.626179
0.628216
0.629525
0.629897
0.629626
0.629042
0.6283
0.627381
0.626347
0.625434
0.624991
0.624314
0.611077
0.611522
0.611923
0.612928
0.614203
0.615606
0.617133
0.618843
0.620751
0.62279
0.624398
0.625255
0.625583
0.625584
0.625338
0.624898
0.624344
0.623827
0.623646
0.623181
0.606971
0.607267
0.607629
0.608506
0.609632
0.610925
0.612388
0.614041
0.615915
0.61803
0.619992
0.621411
0.62226
0.622693
0.622821
0.622719
0.622448
0.62214
0.622021
0.621696
0.602187
0.602387
0.602762
0.603602
0.604712
0.606046
0.607606
0.609396
0.611428
0.613767
0.616162
0.618083
0.619387
0.620178
0.620578
0.620708
0.620627
0.620474
0.620376
0.620137
0.59692
0.597065
0.597439
0.598255
0.599411
0.600863
0.602606
0.604645
0.607007
0.609764
0.612704
0.615154
0.616861
0.617957
0.618598
0.618919
0.619041
0.619031
0.618969
0.618776
0.591208
0.591318
0.5917
0.592529
0.593766
0.595382
0.59737
0.599753
0.6026
0.605959
0.609518
0.61253
0.614665
0.616096
0.617015
0.617577
0.617909
0.618038
0.618019
0.617848
0.585076
0.585142
0.585526
0.586388
0.587745
0.589554
0.591826
0.59461
0.598019
0.602135
0.606486
0.610145
0.612785
0.614645
0.615942
0.616807
0.617382
0.617659
0.617679
0.617516
0.578422
0.57846
0.578887
0.579804
0.581309
0.58334
0.585914
0.589162
0.593231
0.598178
0.60347
0.607973
0.611289
0.613702
0.615463
0.61671
0.617539
0.617967
0.618035
0.617873
0.571151
0.571117
0.571543
0.572554
0.574256
0.576531
0.579468
0.583246
0.588073
0.594042
0.600486
0.606016
0.610193
0.613306
0.615644
0.617327
0.618453
0.619046
0.619166
0.618998
0.562913
0.562903
0.563351
0.564469
0.566439
0.569058
0.572485
0.576944
0.582692
0.589886
0.597666
0.604415
0.609618
0.613558
0.616549
0.61873
0.620199
0.620966
0.621141
0.620963
0.553614
0.553634
0.554089
0.555348
0.557613
0.560669
0.564722
0.570007
0.576835
0.585448
0.594911
0.603184
0.609593
0.614536
0.618275
0.621009
0.622871
0.623826
0.624053
0.623856
0.542805
0.54278
0.543337
0.544814
0.547444
0.551078
0.555948
0.562319
0.570562
0.580966
0.5924
0.602419
0.610248
0.616278
0.620841
0.62425
0.626538
0.627679
0.627955
0.627735
0.529974
0.529907
0.530584
0.53243
0.53563
0.540063
0.546014
0.553804
0.563862
0.576494
0.590237
0.602283
0.611646
0.618888
0.624428
0.628541
0.631305
0.63264
0.632949
0.632699
0.51484
0.514739
0.515512
0.517718
0.521647
0.52716
0.534574
0.54426
0.556666
0.572016
0.588501
0.602732
0.613823
0.622411
0.628993
0.633942
0.637199
0.638704
0.639036
0.638754
0.496334
0.496251
0.497273
0.50007
0.505021
0.512013
0.521414
0.533609
0.549007
0.567615
0.587199
0.603974
0.616963
0.626989
0.63474
0.640513
0.644247
0.645908
0.646231
0.645917
0.473575
0.473426
0.474736
0.478337
0.48477
0.493894
0.506016
0.521488
0.540549
0.563058
0.58621
0.605811
0.620844
0.632494
0.641482
0.648174
0.652381
0.654158
0.654435
0.654093
0.444188
0.444217
0.446318
0.451386
0.460127
0.4724
0.488376
0.508168
0.531744
0.558762
0.585906
0.608468
0.625719
0.639033
0.64933
0.656888
0.661448
0.663291
0.663491
0.663123
0.405378
0.405621
0.40917
0.417184
0.430015
0.447293
0.468591
0.493764
0.522633
0.55475
0.586253
0.61207
0.63162
0.646637
0.65816
0.666471
0.671268
0.673041
0.673135
0.67276
0.353847
0.354269
0.36129
0.374563
0.393849
0.418312
0.446627
0.478455
0.51354
0.551365
0.587505
0.616536
0.638374
0.655112
0.667875
0.676769
0.681432
0.682857
0.682795
0.682486
0.286205
0.288968
0.30412
0.325687
0.353892
0.387267
0.423749
0.463075
0.505095
0.549217
0.590453
0.623225
0.647889
0.666663
0.680753
0.690189
0.694592
0.695482
0.695399
0.695199
0.209298
0.218917
0.24423
0.275568
0.313964
0.356502
0.401259
0.448328
0.497616
0.548506
0.595413
0.632583
0.660227
0.681231
0.69692
0.706832
0.710882
0.711288
0.711311
0.711213
0.140738
0.155431
0.187078
0.227456
0.275533
0.326963
0.379828
0.434629
0.491195
0.548867
0.601471
0.642518
0.673088
0.696207
0.712998
0.723165
0.726991
0.727104
0.727217
0.727199
0.0885591
0.10183
0.138503
0.185008
0.240504
0.299515
0.359806
0.421915
0.485417
0.549339
0.607079
0.652107
0.68567
0.710654
0.728742
0.739494
0.743117
0.743587
0.743807
0.74378
0.0453678
0.0579098
0.0984274
0.148837
0.209792
0.274793
0.341541
0.410078
0.479738
0.549561
0.612573
0.661634
0.69765
0.724569
0.743979
0.755164
0.759552
0.760334
0.760361
0.760424
0.00860074
0.0213211
0.0645064
0.117777
0.183098
0.252948
0.325092
0.399196
0.474575
0.550361
0.618602
0.670966
0.709371
0.737905
0.758685
0.770554
0.775143
0.776014
0.776062
0.776127
-0.0234789
-0.0105471
0.034821
0.0906936
0.159632
0.233456
0.310253
0.389416
0.470178
0.551311
0.623848
0.679384
0.720197
0.750307
0.772234
0.784511
0.789506
0.790468
0.790556
0.790603
-0.0518636
-0.0389778
0.00804903
0.0663648
0.138503
0.215865
0.296814
0.380434
0.465849
0.551558
0.62825
0.68725
0.730106
0.761419
0.784056
0.797059
0.802277
0.803408
0.803505
0.803543
-0.0777731
-0.0648741
-0.0165306
0.0441658
0.119136
0.199595
0.284142
0.371568
0.46107
0.55125
0.632289
0.694242
0.738858
0.771527
0.794531
0.807996
0.813584
0.814824
0.814956
0.814968
-0.101718
-0.0886394
-0.0395179
0.0234423
0.100906
0.18412
0.271792
0.362571
0.455892
0.550408
0.635544
0.700306
0.746805
0.780384
0.803818
0.817807
0.82347
0.824848
0.824976
0.824964
-0.124286
-0.110896
-0.0610757
0.00386003
0.0834342
0.169054
0.259497
0.353355
0.450258
0.54876
0.637873
0.705668
0.754016
0.78864
0.812371
0.826333
0.832205
0.833582
0.833717
0.833672
-0.145535
-0.131975
-0.0815017
-0.014945
0.0664175
0.154225
0.247204
0.343903
0.444095
0.546329
0.639473
0.710462
0.760705
0.79621
0.820259
0.83404
0.839765
0.841176
0.841301
0.841202
-0.165725
-0.152129
-0.100977
-0.0330702
0.049819
0.139576
0.234852
0.334135
0.437304
0.543028
0.640178
0.714604
0.767025
0.803748
0.827743
0.840951
0.846533
0.8478
0.847843
0.847734
-0.185235
-0.17133
-0.119691
-0.0506536
0.0335662
0.125068
0.222396
0.323965
0.429782
0.538813
0.640046
0.718165
0.773339
0.811196
0.835068
0.847711
0.852536
0.853597
0.853605
0.853524
-0.204417
-0.189864
-0.137781
-0.0677216
0.0176624
0.110669
0.209761
0.313344
0.421592
0.533812
0.639028
0.721092
0.779503
0.819226
0.842956
0.854411
0.858256
0.858704
0.858744
0.858731
-0.223142
-0.20785
-0.155363
-0.0843633
0.00203703
0.0963335
0.196945
0.302327
0.412826
0.527981
0.636961
0.723348
0.785535
0.827752
0.851911
0.862169
0.8639
0.863454
0.86332
0.863167
-0.241405
-0.225449
-0.172488
-0.100591
-0.013304
0.0820837
0.183991
0.290988
0.40355
0.521345
0.63387
0.724763
0.79122
0.837074
0.862741
0.871484
0.870545
0.868607
0.868326
0.869291
-0.259029
-0.242591
-0.189148
-0.116425
-0.0283617
0.067961
0.170988
0.279412
0.393805
0.513915
0.629635
0.725049
0.796493
0.846924
0.875675
0.884105
0.880435
0.873552
0.868707
0.867738
-0.276076
-0.259257
-0.205302
-0.131815
-0.0430676
0.0540532
0.158022
0.267656
0.383623
0.505752
0.624271
0.723929
0.800619
0.85704
0.890802
0.901085
0.8974
0.886505
0.88652
0.89067
-0.292476
-0.275317
-0.220877
-0.146718
-0.05737
0.040426
0.14517
0.255798
0.373084
0.496944
0.617761
0.721124
0.803318
0.866348
0.907059
0.922579
0.919324
0.890015
0.851916
0.818693
-0.308233
-0.290814
-0.2359
-0.161171
-0.071338
0.0269767
0.13229
0.243661
0.361974
0.487235
0.609892
0.716312
0.803427
0.873953
0.923847
0.947678
0.95828
0.933421
0.950882
1.01234
-0.323263
-0.30573
-0.250443
-0.175319
-0.0851623
0.013469
0.119104
0.230914
0.34987
0.476066
0.600045
0.708622
0.799893
0.876795
0.932896
0.961616
0.964026
0.936737
0.89295
0.909816
-0.337574
-0.320091
-0.264476
-0.189102
-0.0987611
-6.32353e-07
0.105728
0.217686
0.336873
0.46347
0.588183
0.697869
0.790591
0.870299
0.927788
0.956971
0.937629
0.879282
0.813442
0.80053
-0.351124
-0.333837
-0.277985
-0.202537
-0.112152
-0.0134419
0.0921714
0.203995
0.323014
0.449485
0.574172
0.683534
0.775115
0.851057
0.903414
0.906058
0.867002
0.786455
0.710127
0.685208
-0.363973
-0.347017
-0.291005
-0.215636
-0.125348
-0.0268617
0.0784385
0.189857
0.308325
0.434099
0.557888
0.665497
0.752123
0.816493
0.844079
0.827777
0.764582
0.660495
0.571524
0.547618
-0.376546
-0.359967
-0.303899
-0.228771
-0.138706
-0.040572
0.0642621
0.175052
0.292637
0.41716
0.539092
0.642996
0.722338
0.770596
0.764275
0.726834
0.611444
0.486653
0.377632
0.348932
-0.389716
-0.373544
-0.317378
-0.24253
-0.152761
-0.0550329
0.0492461
0.159253
0.275694
0.398453
0.517539
0.615841
0.687875
0.710833
0.676799
0.585631
0.427179
0.27263
0.141681
0.112745
-0.403981
-0.388023
-0.331708
-0.257163
-0.167709
-0.0703794
0.033306
0.142419
0.25749
0.377986
0.493142
0.584721
0.645972
0.639956
0.587354
0.434929
0.23376
0.0200509
-0.160891
-0.210537
-0.419487
-0.403642
-0.347003
-0.272663
-0.1835
-0.0865708
0.0164715
0.124583
0.238075
0.35585
0.46592
0.55119
0.597141
0.559386
0.471352
0.282251
0.0507587
-0.23819
-0.558996
-0.708225
-0.436279
-0.420335
-0.363321
-0.289161
-0.200232
-0.103689
-0.00133097
0.105676
0.217403
0.332076
0.436242
0.514794
0.542557
0.474397
0.336913
0.131336
-0.102112
-0.445317
-1.03009
-1.60086
-0.454483
-0.438383
-0.380813
-0.30668
-0.217896
-0.12172
-0.0200702
0.0857784
0.195631
0.307036
0.405175
0.475407
0.484112
0.399748
0.207612
-0.0254071
-0.227319
-0.460777
-1.0124
-2.51651
-0.474083
-0.457642
-0.399495
-0.325399
-0.236695
-0.140878
-0.0399883
0.0646033
0.172428
0.280379
0.372469
0.432776
0.420665
0.341167
0.114414
-0.122498
-0.269786
-0.306477
-0.294961
-0.680018
-0.495048
-0.478528
-0.419653
-0.345558
-0.256987
-0.16165
-0.0617065
0.041394
0.146861
0.250758
0.337106
0.386799
0.358546
0.291057
0.0648929
-0.136309
-0.246576
-0.254363
-0.201191
-0.241158
-0.517235
-0.500596
-0.44115
-0.367288
-0.278912
-0.184181
-0.08539
0.0159567
0.118711
0.218058
0.299217
0.338833
0.30401
0.236883
0.0327766
-0.126567
-0.208551
-0.216555
-0.264461
-0.268391
-0.540619
-0.524122
-0.464066
-0.390513
-0.302413
-0.208491
-0.11109
-0.0117502
0.0879649
0.182642
0.258707
0.288772
0.256698
0.17587
0.00463125
-0.11719
-0.187005
-0.164335
-0.184637
-0.186266
-0.564888
-0.548137
-0.488067
-0.415213
-0.327402
-0.23451
-0.138733
-0.0416447
0.0547466
0.144826
0.215821
0.235236
0.215689
0.107902
-0.0306556
-0.112313
-0.150673
-0.199175
-0.173367
-0.181987
-0.590003
-0.572841
-0.513209
-0.441133
-0.3536
-0.262099
-0.168159
-0.0734899
0.0192042
0.104922
0.171716
0.180612
0.172734
0.0473234
-0.0673216
-0.130778
-0.10748
-0.16739
-0.148235
-0.153179
-0.614744
-0.597392
-0.539167
-0.468001
-0.38072
-0.291012
-0.199066
-0.107
-0.0184831
0.0632846
0.127319
0.128717
0.120957
-0.00387478
-0.0940831
-0.144759
-0.13316
-0.14806
-0.153539
-0.151717
-0.638936
-0.621731
-0.565447
-0.495076
-0.408372
-0.320935
-0.231098
-0.141751
-0.0577477
0.0203481
0.083117
0.080821
0.0634249
-0.0462851
-0.107517
-0.13841
-0.177645
-0.148904
-0.154715
-0.149088
-0.661346
-0.644867
-0.590652
-0.521506
-0.436302
-0.351288
-0.263685
-0.177246
-0.0977704
-0.0236338
0.0387414
0.0373107
0.00782298
-0.08155
-0.12129
-0.113485
-0.186582
-0.129424
-0.144531
-0.136757
-0.681547
-0.666173
-0.61403
-0.546131
-0.464045
-0.381359
-0.296223
-0.212859
-0.137524
-0.0681044
-0.00618691
-0.00303519
-0.0375706
-0.100696
-0.129156
-0.088609
-0.133387
-0.116299
-0.122414
-0.119308
-0.697702
-0.68396
-0.634443
-0.568669
-0.490495
-0.410098
-0.32785
-0.24784
-0.17617
-0.112336
-0.0516559
-0.0409595
-0.0693104
-0.101947
-0.119692
-0.0962335
-0.110532
-0.114193
-0.115132
-0.115349
-0.709173
-0.697595
-0.651394
-0.588165
-0.513997
-0.436594
-0.35765
-0.281261
-0.21288
-0.155049
-0.0960583
-0.0763793
-0.092881
-0.0976061
-0.110398
-0.123385
-0.114557
-0.118582
-0.116533
-0.117299
-0.714398
-0.70525
-0.663244
-0.603565
-0.533412
-0.459692
-0.384644
-0.312152
-0.246913
-0.194619
-0.137186
-0.111307
-0.122112
-0.0981101
-0.102319
-0.137036
-0.114848
-0.122736
-0.116505
-0.118618
-0.713575
-0.706568
-0.668918
-0.613107
-0.547317
-0.478114
-0.407471
-0.339111
-0.277277
-0.22906
-0.173558
-0.145545
-0.147835
-0.115681
-0.0887203
-0.113476
-0.101344
-0.122118
-0.120715
-0.123791
-0.705683
-0.698378
-0.665787
-0.615705
-0.555232
-0.490949
-0.425152
-0.360896
-0.302388
-0.256863
-0.20429
-0.176634
-0.169568
-0.131491
-0.0736936
-0.0748287
-0.0931997
-0.108854
-0.114049
-0.116787
-0.68519
-0.676793
-0.65237
-0.609645
-0.555491
-0.496953
-0.436298
-0.375798
-0.319906
-0.275693
-0.226399
-0.202505
-0.207046
-0.254645
-0.335043
-0.409316
-0.420749
-0.395069
-0.366943
-0.345562
-0.642573
-0.634616
-0.625894
-0.595492
-0.549511
-0.496972
-0.441203
-0.383385
-0.328058
-0.283182
-0.235356
-0.203699
-0.284918
-0.427678
-0.66065
-0.814179
-0.826525
-0.800592
-0.754434
-0.70358
-0.601427
-0.598528
-0.597577
-0.573975
-0.537261
-0.491313
-0.439243
-0.382862
-0.325269
-0.275598
-0.226775
-0.160282
-0.169736
-0.23453
-0.339041
-0.355687
-0.282595
-0.213597
-0.147833
-0.105808
-0.578964
-0.58062
-0.570532
-0.556222
-0.526666
-0.484412
-0.433615
-0.376916
-0.313464
-0.249585
-0.188452
-0.0694028
0.0830646
0.319087
0.54537
0.747554
0.898077
0.987411
1.02946
1.06796
-0.547735
-0.547453
-0.544188
-0.542583
-0.517521
-0.477629
-0.426363
-0.367011
-0.297227
-0.216136
-0.130209
0.00739108
0.22676
0.557894
0.886045
1.15713
1.34538
1.45975
1.51709
1.53561
-0.535299
-0.533436
-0.536143
-0.529622
-0.511753
-0.474369
-0.421281
-0.357431
-0.28193
-0.189023
-0.0863093
0.0422987
0.278719
0.600372
0.919865
1.19023
1.38937
1.5089
1.56165
1.57696
-0.523408
-0.522227
-0.525624
-0.518677
-0.509637
-0.471956
-0.417897
-0.351414
-0.272074
-0.173523
-0.0651714
0.0397017
0.258604
0.535193
0.808472
1.04502
1.22853
1.33863
1.38686
1.40033
-0.509895
-0.509956
-0.510917
-0.509889
-0.506493
-0.46901
-0.415915
-0.348974
-0.268778
-0.170734
-0.0661345
0.0140264
0.196617
0.429464
0.6507
0.840841
0.992698
1.08474
1.12456
1.13458
-0.495881
-0.49616
-0.494363
-0.495816
-0.491849
-0.466633
-0.418646
-0.351283
-0.27197
-0.178895
-0.0801702
-0.0180046
0.124057
0.31813
0.493898
0.639062
0.755067
0.826544
0.856906
0.864591
-0.489584
-0.48803
-0.482456
-0.480719
-0.475356
-0.463602
-0.421251
-0.354526
-0.27793
-0.192891
-0.0996293
-0.0475067
0.0557301
0.214445
0.352392
0.461183
0.546595
0.600041
0.621957
0.626375
-0.505344
-0.502212
-0.497712
-0.495937
-0.49373
-0.482372
-0.42675
-0.35679
-0.281504
-0.20573
-0.118676
-0.0713087
-0.00199959
0.124769
0.232109
0.313323
0.37557
0.415049
0.430219
0.435258
-0.545448
-0.545551
-0.548124
-0.556487
-0.552892
-0.518821
-0.439285
-0.359576
-0.281542
-0.213434
-0.134027
-0.0891255
-0.0444437
0.054518
0.13598
0.196103
0.242861
0.273604
0.284371
0.287617
-0.573103
-0.578408
-0.591894
-0.603133
-0.594204
-0.53553
-0.442689
-0.356436
-0.27554
-0.213466
-0.143227
-0.101205
-0.071133
0.00655115
0.0664701
0.109506
0.144847
0.167133
0.176445
0.17906
-0.517211
-0.521217
-0.537584
-0.548349
-0.541868
-0.488866
-0.410254
-0.332692
-0.258808
-0.202932
-0.144532
-0.107407
-0.0846575
-0.0238801
0.0190816
0.0495419
0.0735702
0.0879685
0.0944246
0.096099
-0.365313
-0.372259
-0.381743
-0.389086
-0.3867
-0.362074
-0.321849
-0.276092
-0.224377
-0.179858
-0.137706
-0.107514
-0.0876844
-0.0428878
-0.0126923
0.00810029
0.0230432
0.0313797
0.0343853
0.0344417
-0.201735
-0.204802
-0.209805
-0.216931
-0.221427
-0.219417
-0.211135
-0.197195
-0.173012
-0.147798
-0.122414
-0.101374
-0.0838256
-0.0539692
-0.0339749
-0.0206862
-0.0121993
-0.00862398
-0.0082357
-0.00909564
-0.070833
-0.0724767
-0.076159
-0.0835417
-0.0937195
-0.104755
-0.114893
-0.121244
-0.118248
-0.111953
-0.100315
-0.0884898
-0.0758565
-0.0580289
-0.0463982
-0.0392457
-0.0357568
-0.0353921
-0.036723
-0.0379956
0.0126262
0.0115265
0.00892445
0.00121507
-0.012855
-0.0307041
-0.0482218
-0.0629932
-0.0714462
-0.0776565
-0.075322
-0.0702145
-0.0653429
-0.0563128
-0.0513181
-0.0495215
-0.0496628
-0.0514313
-0.0535004
-0.0548608
0.0533363
0.0526721
0.0506933
0.0436335
0.0293275
0.00996575
-0.00940187
-0.0266174
-0.0391223
-0.0501193
-0.052624
-0.0523931
-0.0536008
-0.0509417
-0.050805
-0.0525466
-0.0551448
-0.0581364
-0.0603573
-0.0616652
0.068242
0.067692
0.0660295
0.0600813
0.0477069
0.0302022
0.0116833
-0.00588945
-0.0195759
-0.0313803
-0.0353172
-0.0383822
-0.0423887
-0.0436347
-0.0468499
-0.0506702
-0.0542986
-0.0574862
-0.0595322
-0.0607352
0.0686825
0.0682752
0.0669719
0.0623701
0.0527015
0.0385858
0.0226468
0.00615758
-0.00740642
-0.019243
-0.0235938
-0.0279387
-0.0327985
-0.0363221
-0.0409039
-0.0454434
-0.0492467
-0.0521504
-0.0538405
-0.0548985
0.0624152
0.0621441
0.0611839
0.057803
0.0506241
0.0399689
0.0273401
0.0132566
0.0010533
-0.0106347
-0.015509
-0.0199026
-0.0248566
-0.0290565
-0.0340634
-0.0385521
-0.0420131
-0.0445138
-0.0457756
-0.0466753
0.0535277
0.0533585
0.0526693
0.0502744
0.0451244
0.0373017
0.027759
0.0165946
0.00676843
-0.00405698
-0.00935023
-0.0134048
-0.0179873
-0.0221131
-0.0268663
-0.0308818
-0.0338797
-0.0359917
-0.0368682
-0.0376178
0.0442138
0.0441211
0.0436371
0.0419833
0.0383927
0.032807
0.0257658
0.0171678
0.00980405
0.000581223
-0.00444497
-0.00773978
-0.0117832
-0.0157215
-0.0200524
-0.0235842
-0.0261437
-0.0278936
-0.0285167
-0.0291465
0.0353698
0.0353372
0.0350171
0.0339286
0.0314736
0.0275615
0.0225049
0.0160051
0.0107585
0.00345461
-0.000571325
-0.00329431
-0.00679241
-0.0102851
-0.0141146
-0.017192
-0.0193894
-0.0209014
-0.0213599
-0.0218676
0.027265
0.0272493
0.0270344
0.0263309
0.0246854
0.0219816
0.0184171
0.0135822
0.0100899
0.00462107
0.00196167
-4.24414e-05
-0.00314471
-0.00619993
-0.00944031
-0.0120174
-0.0138788
-0.0151617
-0.0155354
-0.0159409
0.0199873
0.0199811
0.0198259
0.0193886
0.0183277
0.0165509
0.0141372
0.0105799
0.00838873
0.00438518
0.00283528
0.00170163
-0.000824856
-0.00333411
-0.00598231
-0.00798624
-0.00939054
-0.0103146
-0.0105452
-0.0108887
0.0135262
0.0135188
0.0134338
0.0131932
0.0125703
0.0114987
0.010069
0.00761363
0.00639107
0.00341126
0.00253633
0.00198974
7.54484e-05
-0.00164156
-0.00363463
-0.00496128
-0.0057994
-0.00636544
-0.00656616
-0.00688682
0.00767459
0.00766396
0.00763835
0.00756483
0.00728156
0.00671741
0.0060677
0.00453477
0.00407326
0.00204583
0.00156721
0.00144107
0.000121781
-0.000553426
-0.00196473
-0.00278325
-0.00320276
-0.00353528
-0.00353928
-0.00374812
0.00249921
0.00252022
0.00255281
0.0025877
0.00255035
0.00233013
0.00219813
0.00143974
0.00152875
0.000569655
0.000550382
0.000806687
6.87675e-05
0.000210995
-0.000873474
-0.00151401
-0.00207419
-0.00253867
-0.00228936
-0.00226988
-1.07423
-0.237973
0.0319516
0.306854
0.486568
0.640319
0.763266
0.888796
1.02817
1.11254
-0.097603
0.307344
0.322223
0.509415
0.63121
0.740485
0.834217
0.917966
0.94487
0.903389
0.276041
0.488549
0.522064
0.657739
0.742066
0.820556
0.885343
0.934038
0.935839
0.950253
0.503281
0.644795
0.679311
0.77972
0.836203
0.89279
0.937104
0.969178
0.978103
1.0019
0.679459
0.77971
0.80939
0.875871
0.920204
0.960519
0.992344
1.01649
1.02617
1.05785
0.821523
0.889661
0.919835
0.962156
0.997973
1.0278
1.05189
1.0726
1.08664
1.115
0.939898
0.990089
1.01551
1.04322
1.07065
1.09427
1.11413
1.13336
1.14819
1.17475
1.04319
1.08
1.10096
1.12148
1.14214
1.16144
1.17881
1.19691
1.21177
1.23545
1.13688
1.16589
1.18216
1.19737
1.21341
1.22944
1.24497
1.26187
1.27549
1.29781
1.22499
1.2454
1.26022
1.27335
1.2869
1.30066
1.31415
1.32874
1.34029
1.35993
1.31035
1.32612
1.33993
1.35174
1.36364
1.37528
1.38641
1.39809
1.40576
1.42256
1.39556
1.40809
1.4218
1.43355
1.44419
1.45398
1.4628
1.47106
1.47462
1.48586
1.4843
1.49512
1.5086
1.51812
1.52569
1.53298
1.54016
1.54663
1.54774
1.55509
1.5827
1.58731
1.5955
1.60024
1.60363
1.60811
1.61411
1.62177
1.62567
1.63555
1.69599
1.68288
1.6756
1.66988
1.66716
1.6685
1.67482
1.68719
1.70201
1.73168
1.81797
1.76193
1.73091
1.71371
1.70549
1.70542
1.71428
1.73389
1.76569
1.83496
)
;

boundaryField
{
    wall-4
    {
        type            zeroGradient;
    }
    pressure-outlet-7
    {
        type            fixedValue;
        value           uniform 0;
    }
    velocity-inlet-6
    {
        type            zeroGradient;
    }
    velocity-inlet-5
    {
        type            zeroGradient;
    }
    frontAndBackPlanes
    {
        type            empty;
    }
}


// ************************************************************************* //
