/*--------------------------------*- C++ -*----------------------------------*\
| =========                 |                                                 |
| \\      /  F ield         | OpenFOAM: The Open Source CFD Toolbox           |
|  \\    /   O peration     | Version:  4.0                                   |
|   \\  /    A nd           | Web:      www.OpenFOAM.org                      |
|    \\/     M anipulation  |                                                 |
\*---------------------------------------------------------------------------*/
FoamFile
{
    version     2.0;
    format      ascii;
    class       surfaceScalarField;
    location    "63";
    object      phi;
}
// * * * * * * * * * * * * * * * * * * * * * * * * * * * * * * * * * * * * * //

dimensions      [0 3 -1 0 0 0 0];

internalField   nonuniform List<scalar> 
4262
(
0.107129
0.470859
0.0955553
0.70516
0.0693572
0.858501
0.0473301
1.02079
0.0309439
1.2149
0.0197365
1.44943
0.0123315
1.73327
0.00711657
2.07625
0.00311403
2.48925
-0.000642465
2.98605
-0.00424669
2.9859
-0.00801858
2.48902
-0.0130616
2.07608
-0.0202081
1.73301
-0.0311304
1.44914
-0.047168
1.21455
-0.0688988
1.02049
-0.0951744
0.858579
-0.107059
0.705471
0.470929
0.112871
0.357988
0.13528
0.682751
0.120388
0.873393
0.0978346
1.04334
0.0745713
1.23817
0.0528288
1.47117
0.0344073
1.75169
0.0201681
2.09049
0.00892095
2.50049
-0.000988834
2.99596
-0.0111086
2.99602
-0.0223067
2.50021
-0.0363521
2.09012
-0.054699
1.75136
-0.0765601
1.471
-0.100349
1.23834
-0.123572
1.04372
-0.137048
0.872055
-0.113572
0.681995
0.357357
0.0920483
0.26594
0.124974
0.649825
0.121106
0.877261
0.104846
1.0596
0.0862102
1.2568
0.0670748
1.4903
0.0481097
1.77066
0.0300521
2.10855
0.0134727
2.51707
-0.00262801
3.01206
-0.0183713
3.01176
-0.0343457
2.51619
-0.051847
2.10763
-0.0702075
1.76972
-0.0884944
1.48929
-0.105657
1.2555
-0.119715
1.05778
-0.125187
0.877526
-0.0923363
0.649145
0.26502
0.0639772
0.201962
0.104797
0.609005
0.106564
0.875494
0.0951683
1.071
0.081235
1.27073
0.0664976
1.50504
0.0503742
1.78678
0.0331943
2.12573
0.01551
2.53476
-0.00307358
3.03064
-0.0216045
3.03029
-0.0390101
2.53359
-0.055484
2.1241
-0.0707626
1.785
-0.0846245
1.50315
-0.0983448
1.26923
-0.110096
1.06953
-0.107086
0.874517
-0.0649272
0.606986
0.200093
0.0374797
0.164483
0.0807167
0.565768
0.0909932
0.865217
0.0837844
1.07821
0.0711617
1.28336
0.0592822
1.51692
0.0462405
1.79982
0.0312931
2.14068
0.014323
2.55173
-0.00503291
3.05
-0.0237735
3.04903
-0.0395774
2.5494
-0.0534238
2.13795
-0.0654881
1.79706
-0.0767188
1.51438
-0.0886663
1.28117
-0.0950715
1.07593
-0.0832449
0.86269
-0.0384156
0.562156
0.161678
0.0194609
0.145022
0.0571851
0.528044
0.072563
0.84984
0.070449
1.08032
0.0616303
1.29218
0.0507395
1.52781
0.0395632
1.811
0.0268987
2.15334
0.0118357
2.56679
-0.00569402
3.06753
-0.0229844
3.06632
-0.0374188
2.56383
-0.0489897
2.14952
-0.058965
1.80704
-0.0688493
1.52427
-0.076474
1.2888
-0.0772413
1.0767
-0.0600549
0.845504
-0.0203878
0.522489
0.14129
0.0106024
0.134419
0.0422928
0.496354
0.0583733
0.833759
0.0586349
1.08006
0.0524738
1.29834
0.0430783
1.53721
0.0326503
1.82142
0.0212547
2.16474
0.00790352
2.58014
-0.00819918
3.08363
-0.0236835
3.08181
-0.0354782
2.57563
-0.0452108
2.15925
-0.0540296
1.81585
-0.0618893
1.53213
-0.066416
1.29332
-0.0644568
1.07474
-0.0460052
0.827053
-0.0117374
0.488221
0.129553
0.00656063
0.127859
0.0329124
0.470002
0.0491576
0.817514
0.0506549
1.07856
0.0455492
1.30344
0.0371726
1.54558
0.0275282
1.83107
0.016646
2.17562
0.00460185
2.59219
-0.00928502
3.09752
-0.0226679
3.09519
-0.0336269
2.58659
-0.0429004
2.16852
-0.0505744
1.82353
-0.0570475
1.5386
-0.0601942
1.29647
-0.0565081
1.07105
-0.0373191
0.807864
-0.00789704
0.458799
0.121656
0.00470035
0.123158
0.0265083
0.448194
0.0422652
0.801757
0.0443205
1.07651
0.0396499
1.30811
0.0319844
1.55325
0.0228212
1.84023
0.0121613
2.18628
0.000309503
2.60404
-0.0127654
3.11059
-0.0247532
3.10718
-0.0343825
2.59621
-0.0424823
2.17662
-0.0493493
1.8304
-0.0547171
1.54397
-0.0569367
1.29869
-0.0518194
1.06594
-0.0320704
0.788115
-0.00638551
0.433114
0.11527
0.00373515
0.119423
0.0216528
0.430276
0.0367825
0.786627
0.039503
1.07379
0.0350719
1.31254
0.0276085
1.56071
0.0187676
1.84907
0.00878174
2.19626
-0.00236135
2.61518
-0.0145689
3.1228
-0.025996
3.1186
-0.0354297
2.60565
-0.0429799
2.18417
-0.0489283
1.83634
-0.0536215
1.54866
-0.0548122
1.29988
-0.0484015
1.05953
-0.0283943
0.768107
-0.0058005
0.410521
0.10947
0.00303228
0.116391
0.0174763
0.415832
0.0313603
0.772743
0.0342864
1.07086
0.0301192
1.31671
0.022959
1.56787
0.0143312
1.8577
0.00419214
2.2064
-0.00733538
2.62671
-0.0195094
3.13497
-0.0301992
3.12929
-0.0381471
2.6136
-0.0445699
2.1906
-0.0499273
1.8417
-0.0537014
1.55243
-0.0537837
1.29996
-0.0459127
1.05165
-0.0257074
0.747902
-0.00554061
0.390354
0.103929
0.00234678
0.114044
0.0137615
0.404417
0.0262841
0.760221
0.0293457
1.0678
0.0253082
1.32075
0.0181846
1.575
0.00964983
1.86624
3.03501e-05
2.21602
-0.010606
2.63734
-0.0224594
3.14683
-0.0331804
3.14001
-0.0414312
2.62185
-0.0473177
2.19648
-0.0514804
1.84586
-0.054128
1.55508
-0.0534501
1.29929
-0.0441644
1.04237
-0.0238313
0.727569
-0.00542615
0.371949
0.0985028
0.00169127
0.112353
0.010509
0.3956
0.0212869
0.749443
0.023846
1.06524
0.0196932
1.3249
0.0126051
1.58209
0.00397759
1.87486
-0.00604026
2.22604
-0.017407
2.64871
-0.0294219
3.15884
-0.0392386
3.14983
-0.0456296
2.62824
-0.0502803
2.20113
-0.053859
1.84944
-0.0555678
1.55679
-0.0539034
1.29762
-0.043279
1.03174
-0.0226301
0.70692
-0.00536265
0.354681
0.0931401
0.000816518
0.111536
0.0070164
0.3894
0.016109
0.74035
0.0183186
1.06303
0.0139334
1.32929
0.00656216
1.58946
-0.00222284
1.88365
-0.0120613
2.23588
-0.0228056
2.65945
-0.034101
3.17014
-0.0438555
3.15959
-0.0505057
2.63489
-0.0544388
2.20507
-0.0570126
1.85202
-0.0576549
1.55743
-0.0550017
1.29497
-0.043001
1.01974
-0.0219265
0.685846
-0.00533917
0.338094
0.0878009
0.000127317
0.111409
0.0041442
0.385383
0.0108351
0.733659
0.0117543
1.06211
0.00672213
1.33432
-0.00115729
1.59734
-0.0105983
1.89309
-0.0211182
2.2464
-0.0324125
2.67075
-0.0437752
3.1815
-0.0521643
3.16797
-0.0567175
2.63944
-0.0595856
2.20793
-0.0615161
1.85395
-0.0613883
1.55731
-0.0571647
1.29074
-0.0435035
1.00608
-0.0217375
0.66408
-0.00539804
0.321754
0.0824029
-0.000850635
0.11226
0.000447756
0.384084
0.00515451
0.728953
0.0053634
1.0619
-0.000180392
1.33986
-0.00875183
1.60591
-0.0186411
1.90298
-0.0292508
2.25701
-0.0403974
2.6819
-0.0514325
3.19254
-0.059688
3.17623
-0.0643018
2.64406
-0.0662856
2.20992
-0.0672846
1.85495
-0.0661843
1.55621
-0.0603252
1.28488
-0.0447799
0.990538
-0.0220482
0.641348
-0.00554967
0.305256
0.0768532
-0.00170525
0.113965
-0.00261648
0.384996
-0.000755305
0.727092
-0.00249317
1.06364
-0.00917207
1.34654
-0.0186666
1.6154
-0.0297409
1.91405
-0.0418563
2.26912
-0.0541172
2.69416
-0.0648712
3.20329
-0.0715477
3.18291
-0.0747385
2.64725
-0.0759185
2.2111
-0.0755322
1.85456
-0.0727008
1.55337
-0.0648653
1.27705
-0.0470759
0.972748
-0.0229339
0.617206
-0.00583507
0.288157
0.0710182
-0.0030747
0.11704
-0.00638606
0.388307
-0.00814587
0.728851
-0.0114953
1.06699
-0.0190451
1.35409
-0.0294608
1.62582
-0.0412191
1.92581
-0.0535316
2.28144
-0.0657059
2.70633
-0.0767981
3.21438
-0.0838167
3.18993
-0.0861983
2.64963
-0.0857188
2.21062
-0.0843573
1.8532
-0.0806875
1.5497
-0.0706587
1.26702
-0.0502799
0.952369
-0.0243054
0.591231
-0.00621348
0.270065
0.0648047
-0.00436717
0.121407
-0.0106016
0.394541
-0.0157132
0.733963
-0.0219348
1.07321
-0.03095
1.36311
-0.0427709
1.63764
-0.05609
1.93913
-0.0705928
2.29594
-0.0849329
2.72067
-0.0959751
3.22542
-0.100502
3.19445
-0.101182
2.65031
-0.100505
2.20994
-0.0972984
1.84999
-0.0910298
1.54344
-0.0783509
1.25434
-0.0547279
0.928746
-0.0262517
0.562755
-0.00671615
0.25053
0.0580885
-0.00581086
0.127218
-0.0156529
0.404384
-0.0248988
0.743209
-0.0341258
1.08244
-0.0452705
1.37425
-0.0590627
1.65143
-0.0740441
1.95411
-0.0890539
2.31095
-0.102559
2.73418
-0.11322
3.23609
-0.118729
3.19996
-0.118907
2.65049
-0.115182
2.20622
-0.110579
1.84539
-0.103227
1.53608
-0.0872679
1.23838
-0.0598435
0.901322
-0.0284551
0.531367
-0.00721488
0.229289
0.0508736
-0.00812808
0.135346
-0.0224296
0.418685
-0.0368922
0.757672
-0.0494851
1.09503
-0.0626056
1.38737
-0.0783915
1.66722
-0.0953863
1.97111
-0.112945
2.32851
-0.129363
2.75059
-0.141222
3.24795
-0.143259
3.202
-0.140231
2.64746
-0.136091
2.20207
-0.129256
1.83855
-0.118346
1.52517
-0.0986741
1.21871
-0.0665017
0.86915
-0.0311541
0.496019
-0.00778413
0.205919
0.0430895
-0.0105471
0.145893
-0.0296225
0.43776
-0.05004
0.778089
-0.0676653
1.11266
-0.0844735
1.40418
-0.103491
1.68623
-0.123401
1.99102
-0.142282
2.34739
-0.157306
2.76562
-0.165572
3.25621
-0.167181
3.20361
-0.163789
2.64407
-0.156536
2.19482
-0.148197
1.83021
-0.135391
1.51237
-0.110811
1.19413
-0.073088
0.831427
-0.0336523
0.456583
-0.0082107
0.180478
0.0348788
-0.0153198
0.161213
-0.0420956
0.464536
-0.0696422
0.805636
-0.0921369
1.13515
-0.112342
1.42439
-0.134744
1.70864
-0.156912
2.01318
-0.177408
2.36788
-0.193875
2.78208
-0.203951
3.26629
-0.202997
3.20265
-0.194732
2.6358
-0.18542
2.18551
-0.173474
1.81827
-0.155514
1.49441
-0.125473
1.16409
-0.0811691
0.787123
-0.0363151
0.411729
-0.00857563
0.152738
0.0263032
-0.0193922
0.180605
-0.0547695
0.499914
-0.0919061
0.842772
-0.122314
1.16556
-0.148644
1.45072
-0.175511
1.7355
-0.200645
2.03832
-0.222068
2.38931
-0.236821
2.79684
-0.24048
3.26995
-0.234048
3.19622
-0.224474
2.62623
-0.212596
2.17363
-0.19872
1.80439
-0.177709
1.4734
-0.140341
1.12672
-0.0878455
0.734627
-0.037959
0.361843
-0.00849906
0.123278
0.0178041
-0.0326327
0.213237
-0.0818108
0.549092
-0.129604
0.890565
-0.166352
1.20231
-0.197825
1.48219
-0.228825
1.7665
-0.254852
2.06435
-0.274988
2.40944
-0.286491
2.80834
-0.28752
3.27098
-0.278992
3.18769
-0.265064
2.6123
-0.249722
2.15829
-0.231119
1.78579
-0.20229
1.44457
-0.156497
1.08093
-0.0954968
0.673627
-0.0396247
0.305971
-0.00834871
0.0920024
0.00945542
-0.0470461
0.260284
-0.120855
0.622901
-0.184642
0.954352
-0.230271
1.24794
-0.267949
1.51987
-0.299395
1.79795
-0.322857
2.08781
-0.339045
2.42563
-0.345907
2.8152
-0.340431
3.2655
-0.323082
3.17034
-0.303613
2.59283
-0.283953
2.13863
-0.261164
1.763
-0.226999
1.4104
-0.170571
1.0245
-0.0983036
0.60136
-0.0385211
0.246188
-0.00810449
0.0615858
0.00135093
-0.0340467
0.29433
-0.0977325
0.686587
-0.156407
1.01303
-0.20425
1.29578
-0.247752
1.56337
-0.286926
1.83713
-0.323718
2.1246
-0.356992
2.4589
-0.382531
2.84074
-0.395894
3.27886
-0.395913
3.17036
-0.386743
2.58366
-0.370753
2.12264
-0.343541
1.73579
-0.290643
1.3575
-0.207119
0.940977
-0.11114
0.505381
-0.0420248
0.177073
-0.00940904
0.02897
-0.00805811
-0.0125835
0.306914
-0.0476126
0.721616
-0.0898395
1.05525
-0.1297
1.33564
-0.169284
1.60295
-0.204637
1.87248
-0.237577
2.15754
-0.266091
2.48742
-0.286733
2.86139
-0.295765
3.28789
-0.289986
3.16459
-0.27259
2.56626
-0.248292
2.09834
-0.214528
1.70202
-0.169603
1.31258
-0.109347
0.88072
-0.0501581
0.446192
-0.0185777
0.145493
-0.00450666
0.014899
-0.0125648
7.79512e-05
0.306836
-0.0245218
0.746215
-0.0541108
1.08484
-0.0846348
1.36617
-0.116734
1.63505
-0.147817
1.90356
-0.176532
2.18625
-0.200457
2.51134
-0.216309
2.87724
-0.219766
3.29135
-0.205811
3.15063
-0.183546
2.544
-0.159073
2.07387
-0.130513
1.67347
-0.0906482
1.27271
-0.0462887
0.836361
-0.015875
0.415779
-0.00575916
0.135377
-0.0018716
0.0110114
-0.0144364
0.000721231
0.306114
-0.0130111
0.759948
-0.0342881
1.10612
-0.0588715
1.39075
-0.0850038
1.66118
-0.111216
1.92977
-0.135581
2.21062
-0.155882
2.53164
-0.168574
2.88993
-0.167535
3.29031
-0.15083
3.13393
-0.127869
2.52104
-0.100495
2.04649
-0.0674007
1.64037
-0.0349142
1.24023
-0.00864468
0.810091
0.00340534
0.403729
0.00247583
0.136307
0.000217313
0.0132699
-0.0142191
0.00452832
0.301586
-0.00425809
0.768734
-0.0224815
1.12434
-0.0435356
1.4118
-0.0655305
1.68318
-0.0874653
1.95171
-0.108264
2.23142
-0.125105
2.54848
-0.134065
2.89889
-0.130567
3.28681
-0.114044
3.1174
-0.0895185
2.49651
-0.0613004
2.01828
-0.0348011
1.61387
-0.00623409
1.21166
0.014552
0.789305
0.0163632
0.401917
0.00870261
0.143967
0.00213338
0.0198392
-0.0120857
0.00521777
0.296368
-0.000672265
0.774624
-0.0162196
1.13989
-0.0343124
1.4299
-0.0535226
1.70239
-0.072816
1.971
-0.090788
2.24939
-0.105246
2.56294
-0.112924
2.90657
-0.108418
3.28231
-0.0898062
3.09879
-0.066489
2.4732
-0.0405009
1.99229
-0.0107856
1.58416
0.0112737
1.1896
0.0222317
0.778347
0.0210141
0.403135
0.0112927
0.153689
0.00299164
0.0281402
-0.00909404
0.00454991
0.291818
0.000667781
0.778506
-0.0125507
1.15311
-0.0292103
1.44656
-0.0464993
1.71968
-0.063576
1.98808
-0.0797403
2.26556
-0.0930029
2.57621
-0.0998964
2.91346
-0.0951681
3.27758
-0.0789228
3.08254
-0.0555276
2.4498
-0.0280509
1.96481
-0.00559507
1.5617
0.0149123
1.16909
0.0260936
0.767166
0.0220542
0.407174
0.0119689
0.163774
0.00332719
0.036782
-0.00576685
0.00270798
0.289111
-0.000688136
0.781903
-0.0120408
1.16446
-0.0264318
1.46095
-0.0423066
1.73555
-0.0584582
2.00423
-0.073863
2.28096
-0.0866046
2.58895
-0.0932436
2.9201
-0.0884044
3.27274
-0.0715261
3.06567
-0.049633
2.42791
-0.0278003
1.94298
-0.00239298
1.53629
0.0155596
1.15114
0.0227554
0.75997
0.0201547
0.409775
0.0111054
0.172823
0.00321785
0.0446695
-0.002549
0.0011539
0.287957
-0.00165064
0.784707
-0.0122876
1.1751
-0.0258494
1.47451
-0.0408967
1.7506
-0.0559538
2.01929
-0.0704988
2.2955
-0.0827406
2.60119
-0.0894439
2.9268
-0.086431
3.26973
-0.072371
3.05161
-0.0511742
2.40671
-0.0266977
1.9185
-0.00780258
1.5174
0.00924097
1.1341
0.0191906
0.750021
0.0163977
0.412568
0.0092712
0.17995
0.00274869
0.051192
0.000199693
-0.000479117
0.288436
-0.00485481
0.789083
-0.0140218
1.18426
-0.0259658
1.48645
-0.0400025
1.76464
-0.054685
2.03397
-0.0691546
2.30997
-0.0818027
2.61384
-0.0897312
2.93473
-0.0883804
3.26838
-0.0740647
3.03729
-0.0550272
2.38767
-0.0362002
1.89968
-0.0133118
1.49451
0.0033966
1.11739
0.0105608
0.742856
0.0112487
0.41188
0.00651207
0.184686
0.00209622
0.0556078
0.00229592
-0.00141669
0.289852
-0.00607801
0.793744
-0.0152858
1.19347
-0.027054
1.49822
-0.0405855
1.77817
-0.0545623
2.04795
-0.068675
2.32409
-0.0815757
2.62674
-0.0903518
2.94351
-0.0908274
3.26885
-0.0795797
3.02604
-0.0611817
2.36928
-0.0392229
1.87772
-0.0225083
1.4778
-0.00684686
1.10173
0.00423662
0.731773
0.00564836
0.410468
0.00389011
0.186445
0.00143279
0.0580652
0.00372871
-0.00300847
0.292861
-0.00849362
0.799229
-0.0171097
1.20209
-0.0278803
1.50899
-0.0406107
1.7909
-0.054418
2.06175
-0.0688402
2.33851
-0.0825267
2.64042
-0.0927757
2.95376
-0.0956764
3.27175
-0.085857
3.01622
-0.0688774
2.3523
-0.0513587
1.8602
-0.0298388
1.45628
-0.013721
1.08561
-0.00437344
0.722425
0.00067078
0.405424
0.00117502
0.18594
0.000662833
0.0585773
0.00439154
-0.00381404
0.296675
-0.00922375
0.804639
-0.018021
1.21089
-0.0289386
1.51991
-0.0415055
1.80346
-0.054898
2.07515
-0.0691611
2.35277
-0.083244
2.65451
-0.0947979
2.96531
-0.100089
3.27704
-0.0931839
3.00932
-0.0773401
2.33645
-0.0554568
1.83831
-0.0384053
1.43922
-0.0219355
1.06914
-0.00865081
0.709141
-0.0034092
0.400182
-0.000613543
0.183145
0.000164949
0.0577989
0.00455649
-0.00425434
0.300929
-0.0107183
0.811103
-0.0192765
1.21944
-0.0294632
1.5301
-0.0414558
1.81546
-0.0547701
2.08846
-0.0693724
2.36737
-0.084223
2.66936
-0.097271
2.97836
-0.104862
3.28463
-0.100791
3.00525
-0.08636
2.32202
-0.0680465
1.82
-0.0443436
1.41552
-0.0257811
1.05058
-0.013644
0.697004
-0.00555779
0.392096
-0.00168631
0.179273
-0.000171149
0.0562837
0.00438534
-0.00422095
0.30515
-0.0107652
0.817647
-0.0195385
1.22822
-0.029936
1.54049
-0.0419304
1.82745
-0.054969
2.1015
-0.0694053
2.38181
-0.0845866
2.68454
-0.0990635
2.99284
-0.109471
3.29504
-0.108777
3.00455
-0.0950017
2.30825
-0.0717347
1.79673
-0.0507269
1.39451
-0.0297172
1.02957
-0.0130483
0.680335
-0.00561405
0.384662
-0.00171659
0.175376
-0.000505687
0.0550728
0.00387966
-0.00440247
0.309553
-0.0116087
0.824853
-0.0201298
1.23674
-0.0299132
1.55028
-0.0413865
1.83893
-0.0543036
2.11442
-0.0690014
2.39651
-0.0848944
2.70043
-0.100709
3.00865
-0.113072
3.3074
-0.114856
3.00634
-0.103499
2.29689
-0.0846448
1.77788
-0.0552942
1.36516
-0.02943
1.0037
-0.0119304
0.662835
-0.000797286
0.373529
0.00230061
0.172278
0.0015409
0.0558325
0.00542056
-0.00435304
0.313906
-0.011308
0.831808
-0.0198268
1.24526
-0.0297411
1.56019
-0.0411979
1.85038
-0.0538815
2.1271
-0.0684011
2.41103
-0.0845131
2.71654
-0.101471
3.02561
-0.11653
3.32246
-0.122259
3.01207
-0.112545
2.28718
-0.0888172
1.75415
-0.0612206
1.33757
-0.0289176
0.971401
-0.00364717
0.637565
0.00831298
0.361569
0.00657835
0.174012
-0.00105741
0.0634683
0.00436315
-0.00448315
0.318389
-0.0117348
0.83906
-0.01991
1.25343
-0.0292157
1.5695
-0.0401232
1.86129
-0.0526113
2.13959
-0.0672786
2.4257
-0.0839359
2.7332
-0.101935
3.04361
-0.118643
3.33917
-0.126764
3.02019
-0.120532
2.28094
-0.102867
1.73649
-0.0671355
1.30183
-0.0260627
0.930328
0.00987215
0.60163
0.0362198
0.335221
0.0439104
0.166322
0.0277504
0.0796283
0.0321135
-0.00433313
0.322722
-0.01118
0.845907
-0.0192197
1.26147
-0.0285344
1.57881
-0.0393555
1.87211
-0.0516013
2.15183
-0.0660239
2.44012
-0.0827126
2.74989
-0.101478
3.06237
-0.120452
3.35814
-0.132058
3.0318
-0.129937
2.27882
-0.108693
1.71524
-0.0753552
1.2685
-0.0264788
0.881452
0.0216259
0.553525
0.0595257
0.297321
0.0523212
0.173526
0.0229098
0.10904
0.0550233
-0.00427244
0.326994
-0.0112698
0.852904
-0.0189465
1.26915
-0.0276399
1.5875
-0.0379198
1.88239
-0.0498897
2.1638
-0.0643146
2.45454
-0.0813448
2.76692
-0.100872
3.0819
-0.121237
3.37851
-0.134642
3.0452
-0.136763
2.28094
-0.124638
1.70312
-0.0869482
1.23081
-0.0322084
0.826712
0.039357
0.48196
0.136148
0.20053
0.202594
0.107081
0.184851
0.126782
0.239875
-0.004098
0.331092
-0.0107393
0.859546
-0.0184434
1.27685
-0.027418
1.59648
-0.0381137
1.89309
-0.0505665
2.17626
-0.0657692
2.46975
-0.084194
2.78534
-0.106253
3.10396
-0.131152
3.40341
-0.151155
3.0652
-0.159465
2.28925
-0.145723
1.68938
-0.11201
1.19709
-0.0475802
0.762282
0.0110857
0.423294
-0.0522126
0.263828
-0.354486
0.409354
-0.944504
0.716801
0.9017
-1.60633
-0.00398491
0.335077
-0.0107557
0.866316
-0.0182157
1.28431
-0.0267943
1.60506
-0.0371847
1.90348
-0.0497234
2.18879
-0.0654862
2.48551
-0.0850881
2.80495
-0.109175
3.12805
-0.137538
3.43177
-0.16205
3.08972
-0.175448
2.30265
-0.179853
1.69378
-0.152981
1.17022
-0.118547
0.727848
-0.217506
0.522253
-0.693888
0.740209
-1.45099
1.16646
-2.05645
1.32226
1.21598
-2.37073
-0.00373841
0.338816
-0.0100089
0.872587
-0.0173035
1.29161
-0.025953
1.61371
-0.0364632
1.91399
-0.0491556
2.20149
-0.0652311
2.50158
-0.0855677
2.82528
-0.111388
3.15387
-0.14354
3.46392
-0.175245
3.12142
-0.198329
2.32574
-0.202994
1.69844
-0.184862
1.15209
-0.270098
0.813084
-0.752923
1.00508
-1.55517
1.54245
-2.11498
1.72627
-2.35288
1.56016
1.32968
-2.46659
-0.00362701
0.342443
-0.00983284
0.878793
-0.016819
1.29859
-0.0250353
1.62192
-0.0351792
1.92413
-0.0478678
2.21418
-0.0643683
2.51808
-0.0857454
2.84666
-0.113556
3.18168
-0.149578
3.49994
-0.187027
3.15887
-0.216623
2.35533
-0.240155
1.72198
-0.313713
1.22565
-0.677517
1.17689
-1.44359
1.77116
-2.03044
2.1293
-2.26921
1.96504
-2.38188
1.67282
1.3933
-2.4455
-0.00330262
0.345745
-0.00892082
0.884411
-0.0156312
1.3053
-0.0238203
1.63011
-0.0340707
1.93438
-0.0468563
2.22696
-0.0635625
2.53479
-0.0855275
2.86863
-0.114932
3.21108
-0.154624
3.53964
-0.200177
3.20442
-0.24312
2.39827
-0.280823
1.75968
-0.461725
1.40655
-1.09606
1.81122
-1.79232
2.46742
-2.10994
2.44692
-2.2573
2.1124
-2.33913
1.75465
1.45932
-2.40514
-0.00330865
0.349054
-0.0090944
0.890197
-0.0157545
1.31196
-0.0237739
1.63813
-0.0340366
1.94464
-0.0470641
2.23999
-0.064378
2.5521
-0.0875185
2.89177
-0.118965
3.24253
-0.162652
3.58332
-0.21453
3.2563
-0.259778
2.44352
-0.346132
1.84603
-0.741209
1.80163
-1.49264
2.56265
-1.96321
2.938
-2.16286
2.64657
-2.2688
2.21834
-2.34597
1.83182
1.52256
-2.40921
-0.00336188
0.352416
-0.0091081
0.895943
-0.016162
1.31902
-0.024869
1.64684
-0.0359064
1.95568
-0.0496919
2.25377
-0.0678306
2.57024
-0.0920613
2.916
-0.125423
3.27589
-0.172918
3.63082
-0.230473
3.31386
-0.292559
2.50561
-0.478872
2.03235
-1.04572
2.36847
-1.67983
3.19676
-1.95295
3.21111
-2.0994
2.79302
-2.21315
2.33209
-2.30675
1.92542
1.5841
-2.36829
-0.00350784
0.355924
-0.00995601
0.902391
-0.0174029
1.32646
-0.0263014
1.65574
-0.0375641
1.96694
-0.0519015
2.26811
-0.0710119
2.58935
-0.0968042
2.94179
-0.132439
3.31152
-0.184137
3.68252
-0.247297
3.37702
-0.331538
2.58985
-0.613215
2.31402
-1.26398
3.01923
-1.75145
3.68424
-1.9584
3.41806
-2.09775
2.93237
-2.22149
2.45583
-2.33164
2.03557
1.64269
-2.39023
-0.00342877
0.359352
-0.00970958
0.908672
-0.0176565
1.33441
-0.0274537
1.66554
-0.0396621
1.97915
-0.0548625
2.28331
-0.0748688
2.60936
-0.101758
2.96868
-0.139242
3.34901
-0.193995
3.73727
-0.262166
3.44519
-0.386903
2.71459
-0.773945
2.70107
-1.41029
3.65558
-1.76113
4.03509
-1.93364
3.59057
-2.03521
3.03393
-2.12365
2.54427
-2.1904
2.10233
1.63532
-2.18303
-0.00346466
0.362817
-0.0106268
0.915834
-0.0190389
1.34282
-0.028985
1.67548
-0.0413964
1.99156
-0.0571562
2.29907
-0.0781656
2.63037
-0.10668
2.99719
-0.146379
3.38871
-0.203835
3.79473
-0.282754
3.52411
-0.451805
2.88364
-0.904873
3.15413
-1.46139
4.21209
-1.72229
4.29599
-1.87345
3.74173
-1.96673
3.12722
-1.96757
2.54511
-1.89777
2.03252
1.59822
-1.86067
-0.00321697
0.366034
-0.00991576
0.922533
-0.0187874
1.3517
-0.0297178
1.68641
-0.0430968
2.00494
-0.0595514
2.31553
-0.081012
2.65183
-0.10972
3.0259
-0.149685
3.42867
-0.206359
3.8514
-0.2922
3.60995
-0.497088
3.08853
-0.988158
3.6452
-1.42836
4.6523
-1.5926
4.46022
-1.65928
3.80841
-1.66352
3.13146
-1.51575
2.39734
-1.01603
1.5328
0.582196
-0.00285015
0.368884
-0.01073
0.930413
-0.0201539
1.36112
-0.0312546
1.69751
-0.0450826
2.01877
-0.062623
2.33307
-0.0859777
2.67518
-0.117718
3.05764
-0.161936
3.47289
-0.226155
3.91562
-0.329562
3.71335
-0.583257
3.34222
-1.123
4.18495
-1.48032
5.00962
-1.57945
4.55935
-1.57721
3.80618
-1.47338
3.02762
-1.23456
2.15853
-0.630766
0.928996
-0.0485703
-0.00253113
0.371415
-0.00918271
0.937064
-0.0189774
1.37091
-0.0314802
1.71002
-0.0469434
2.03423
-0.0661315
2.35226
-0.0914225
2.70048
-0.125584
3.0918
-0.173943
3.52125
-0.243618
3.98529
-0.366271
3.83601
-0.681313
3.65726
-1.24172
4.74536
-1.50137
5.26927
-1.55962
4.61759
-1.53698
3.78354
-1.3351
2.82574
-0.781573
1.605
-0.108395
0.255818
-0.156965
-0.00158623
0.373002
-0.00962764
0.945106
-0.0199269
1.38121
-0.0323705
1.72246
-0.0480197
2.04988
-0.068142
2.37238
-0.0952796
2.72761
-0.132631
3.12915
-0.185052
3.57367
-0.263704
4.06395
-0.41312
3.98542
-0.78509
4.02923
-1.31949
5.27975
-1.49505
5.44483
-1.52618
4.64872
-1.43776
3.69512
-1.10043
2.48841
-0.312448
0.817019
0.0247211
-0.081351
-0.132244
-0.000941064
0.373943
-0.00661382
0.950778
-0.0168858
1.39149
-0.0308504
1.73642
-0.0482242
2.06726
-0.070044
2.3942
-0.0991621
2.75673
-0.138702
3.16869
-0.193841
3.62881
-0.280141
4.15025
-0.455478
4.16076
-0.893782
4.46754
-1.36482
5.75079
-1.48085
5.56086
-1.4831
4.65098
-1.25818
3.4702
-0.685256
1.91549
-0.0627147
0.194478
0.0300907
-0.174156
-0.102153
3.54748e-05
0.373907
-0.00615665
0.95697
-0.0166104
1.40194
-0.0302154
1.75003
-0.0472408
2.08428
-0.0697357
2.41669
-0.100355
2.78735
-0.142551
3.21089
-0.201371
3.68763
-0.297584
4.24646
-0.499453
4.36263
-0.987468
4.95555
-1.36021
6.12353
-1.42394
5.62459
-1.37756
4.6046
-1.08927
3.18191
-0.321855
1.14807
0.00484012
-0.132218
0.0149125
-0.184229
-0.0872408
0.00328937
0.370618
0.000580276
0.959679
-0.010208
1.41273
-0.0254195
1.76524
-0.0439227
2.10279
-0.0680732
2.44084
-0.100407
2.81968
-0.144243
3.25473
-0.205546
3.74893
-0.309193
4.35011
-0.53689
4.59033
-1.04916
5.46782
-1.32426
6.39864
-1.36497
5.6653
-1.22453
4.46415
-0.769827
2.72721
-0.0678642
0.446106
0.0445546
-0.244637
0.0242454
-0.16392
-0.0629953
0.00427146
0.366346
0.00219119
0.96176
-0.00776454
1.42268
-0.0215881
1.77906
-0.0389379
2.12014
-0.0633445
2.46525
-0.0964013
2.85274
-0.142016
3.30034
-0.206194
3.81311
-0.318496
4.46241
-0.576516
4.84835
-1.07164
5.96294
-1.26126
6.58826
-1.26987
5.67392
-1.0499
4.24418
-0.459412
2.13672
-0.0185116
0.00520558
-0.00673129
-0.256417
0.00475396
-0.175405
-0.0582414
0.00869435
0.357652
0.010221
0.960233
0.00327498
1.42963
-0.0107098
1.79305
-0.0295621
2.13899
-0.0550323
2.49072
-0.0889519
2.88666
-0.134953
3.34634
-0.200597
3.87875
-0.318589
4.5804
-0.598054
5.12781
-1.0486
6.41349
-1.17216
6.71182
-1.1565
5.65825
-0.896254
3.98394
-0.26269
1.50316
-0.0703087
-0.187175
-0.0388321
-0.287893
-0.0143948
-0.199842
-0.0726361
0.0112882
0.346364
0.0156402
0.955881
0.0104849
1.43478
0.000301553
1.80323
-0.0180835
2.15737
-0.0423841
2.51502
-0.0754875
2.91976
-0.121575
3.39243
-0.187978
3.94516
-0.310448
4.70287
-0.597267
5.41463
-0.984907
6.80113
-1.0497
6.77661
-0.979674
5.58823
-0.67569
3.67995
-0.0697658
0.897234
0.0153718
-0.272313
0.000584989
-0.273107
-0.00153226
-0.197725
-0.0741684
0.0185382
0.327826
0.0303535
0.944066
0.0293797
1.43576
0.0183292
1.81428
0.000453856
2.17525
-0.0222536
2.53773
-0.0545994
2.95211
-0.0992541
3.43708
-0.164149
4.01005
-0.285988
4.82471
-0.566407
5.69505
-0.872903
7.10763
-0.907463
6.81117
-0.804877
5.48564
-0.44416
3.31924
0.0683527
0.384721
0.0787578
-0.282718
0.0582985
-0.252647
0.0223736
-0.1618
-0.0517947
0.0241787
0.303647
0.0420145
0.92623
0.0448794
1.43289
0.0381218
1.82104
0.0257099
2.18766
0.00424109
2.5592
-0.0254597
2.98181
-0.0673125
3.47894
-0.128957
4.07169
-0.244854
4.94061
-0.493679
5.94387
-0.714147
7.32809
-0.742924
6.83995
-0.63851
5.38123
-0.306208
2.98693
-0.000321055
0.0788337
0.0188126
-0.301852
0.0296508
-0.263485
0.014868
-0.147017
-0.0369267
0.0352404
0.268407
0.0655742
0.895896
0.0769434
1.42152
0.0737828
1.8242
0.0630499
2.19839
0.0439681
2.57828
0.0168162
3.00896
-0.0215104
3.51726
-0.0771056
4.12729
-0.177025
5.04053
-0.381137
6.14799
-0.537176
7.48413
-0.558724
6.86149
-0.460422
5.28293
-0.182613
2.70912
-0.072227
-0.0315521
-0.0543154
-0.319763
-0.0214139
-0.296387
-0.00314213
-0.165289
-0.0400688
0.0446443
0.223762
0.0868912
0.853649
0.106806
1.40161
0.111291
1.81971
0.107036
2.20265
0.0929667
2.59235
0.071778
3.03015
0.0399796
3.54906
-0.0102714
4.17754
-0.0854409
5.1157
-0.22217
6.28472
-0.311992
7.57396
-0.323089
6.87259
-0.265948
5.22579
-0.0755792
2.51876
-0.0912593
-0.015872
-0.0697613
-0.341261
-0.0264265
-0.339722
0.00227341
-0.193989
-0.0377954
0.0582221
0.16554
0.12102
0.790852
0.158161
1.36447
0.170922
1.80695
0.171087
2.20248
0.161309
2.60212
0.146672
3.04479
0.124058
3.57168
0.0885908
4.21301
0.0406548
5.16363
-0.015594
6.34096
-0.0485509
7.60691
-0.0513161
6.87536
-0.0179973
5.19247
0.0419061
2.45885
-0.0976914
0.123726
-0.0970285
-0.341924
-0.0418558
-0.394894
0.0140914
-0.249936
-0.023704
0.0602793
0.105261
0.150734
0.700397
0.207005
1.3082
0.233971
1.77999
0.245792
2.19066
0.244805
2.60311
0.237952
3.05164
0.226223
3.5834
0.209059
4.23017
0.189288
5.1834
0.240565
6.28969
0.283808
7.56367
0.285255
6.87391
0.167925
5.3098
-0.0934291
2.72021
-0.35127
0.381567
-0.380243
-0.312952
-0.284109
-0.491028
-0.118474
-0.415571
-0.142178
0.0500784
0.0551824
0.184247
0.566228
0.280628
1.21182
0.326941
1.73367
0.34706
2.17054
0.354821
2.59535
0.355415
3.05105
0.357389
3.58143
0.360239
4.22732
0.37536
5.16828
0.521904
6.14314
0.667876
7.4177
0.658258
6.88353
0.467169
5.50088
-0.044685
3.23206
-0.563615
0.900496
-0.670742
-0.205824
-0.522629
-0.639141
-0.276367
-0.661834
-0.418544
0.0344344
0.020748
0.219145
0.381518
0.345459
1.0855
0.422933
1.6562
0.465337
2.12814
0.488192
2.5725
0.495701
3.04354
0.510929
3.5662
0.538991
4.19926
0.597993
5.10928
0.847823
5.89331
1.21946
7.04606
1.43668
6.6663
1.54118
5.39639
1.11444
3.6588
0.343505
1.67144
-0.205451
0.343132
-0.432352
-0.41224
-0.275931
-0.818255
-0.694475
0.0306932
-0.00994519
0.236596
0.175615
0.449172
0.872927
0.564346
1.54103
0.615267
2.07722
0.649357
2.53841
0.670879
3.02202
0.696181
3.5409
0.747038
4.1484
0.862106
4.99421
1.22802
5.52739
1.86286
6.41122
2.22904
6.30012
2.46829
5.15715
2.34498
3.7821
1.702
2.31442
1.02451
1.02063
0.431755
0.180513
0.113776
-0.500276
-0.580699
0.0248378
-0.034783
0.160803
0.039649
0.494832
0.538898
0.692578
1.34328
0.793706
1.97609
0.842629
2.48948
0.878459
2.98619
0.907229
3.51213
0.980862
4.07477
1.11939
4.85568
1.50993
5.13685
2.29504
5.62612
2.69066
5.9045
2.87323
4.97458
2.74332
3.91201
2.24234
2.81539
1.61088
1.65209
1.06069
0.730704
0.434557
0.125859
-0.146142
0.00338336
-0.0381664
0.0806912
-0.0376589
0.413965
0.205625
0.711776
1.04547
0.849637
1.83823
0.890934
2.44819
0.897659
2.97946
0.880966
3.52882
0.87976
4.07598
0.922649
4.81279
1.07821
4.98129
1.52185
5.18247
1.69993
5.72642
1.74129
4.93322
1.65665
3.99665
1.4194
3.05265
1.03167
2.03981
0.623043
1.13933
0.258331
0.490571
0.112189
0.00417045
-0.0423368
0.0454651
-0.0789535
0.220024
0.0310657
0.544856
0.720637
0.715456
1.66763
0.775467
2.38818
0.793159
2.96177
0.788576
3.53341
0.770372
4.09418
0.789422
4.79374
0.863772
4.90694
1.1632
4.88304
1.35156
5.53806
1.36383
4.92094
1.30189
4.0586
1.1393
3.21523
0.84865
2.33046
0.530807
1.45718
0.22469
0.796688
0.336879
0.00507427
-0.0474111
0.0236845
-0.0975638
0.0957498
-0.0409996
0.376903
0.439484
0.572795
1.47174
0.657618
2.30335
0.674286
2.9451
0.671686
3.53601
0.648111
4.11776
0.646863
4.79499
0.675645
4.87816
0.851343
4.70735
1.02945
5.35995
1.02663
4.92376
0.967355
4.11788
0.845139
3.33745
0.64036
2.53524
0.395842
1.70169
0.159367
1.03316
0.496246
-0.00544726
-0.0419638
-0.00436004
-0.098651
0.0295743
-0.074934
0.236223
0.232835
0.432908
1.27505
0.535966
2.2003
0.560711
2.92036
0.559595
3.53712
0.531681
4.14567
0.512442
4.81423
0.517856
4.87275
0.620136
4.60507
0.755473
5.22462
0.746603
4.93263
0.684703
4.17978
0.588486
3.43367
0.444369
2.67936
0.264341
1.88172
0.0963289
1.20118
0.592575
-0.0142424
-0.0277214
-0.0122278
-0.100666
0.0128313
-0.0999931
0.141277
0.104389
0.320592
1.09574
0.407795
2.11309
0.435912