/*--------------------------------*- C++ -*----------------------------------*\
| =========                 |                                                 |
| \\      /  F ield         | OpenFOAM: The Open Source CFD Toolbox           |
|  \\    /   O peration     | Version:  4.0                                   |
|   \\  /    A nd           | Web:      www.OpenFOAM.org                      |
|    \\/     M anipulation  |                                                 |
\*---------------------------------------------------------------------------*/
FoamFile
{
    version     2.0;
    format      ascii;
    class       volScalarField;
    location    "56";
    object      p;
}
// * * * * * * * * * * * * * * * * * * * * * * * * * * * * * * * * * * * * * //

dimensions      [0 2 -2 0 0 0 0];

internalField   nonuniform List<scalar> 
8800
(
0.911111
0.863324
0.824634
0.79564
0.774776
0.759947
0.749353
0.741877
0.737063
0.735014
0.736292
0.74049
0.747141
0.756461
0.769243
0.786979
0.811757
0.845699
0.888249
0.946951
0.742361
0.75004
0.757515
0.760823
0.75932
0.754243
0.747757
0.741683
0.736964
0.734129
0.733859
0.736374
0.74087
0.74682
0.753592
0.759874
0.763516
0.76278
0.757361
0.748671
0.720766
0.726925
0.731052
0.733996
0.736045
0.73665
0.735546
0.733444
0.731434
0.730536
0.731509
0.733899
0.736704
0.738888
0.739497
0.7383
0.735959
0.732566
0.728008
0.724248
0.714959
0.717609
0.72036
0.722763
0.724397
0.725559
0.726301
0.726422
0.726133
0.726094
0.726857
0.728035
0.728881
0.728949
0.728342
0.727252
0.725436
0.722866
0.720463
0.718959
0.709583
0.711007
0.712785
0.714816
0.716599
0.71794
0.71893
0.71973
0.720352
0.720927
0.72159
0.722094
0.722199
0.721915
0.72122
0.719972
0.718277
0.716429
0.715121
0.71429
0.704512
0.705432
0.706672
0.708237
0.709868
0.711391
0.712677
0.713747
0.714718
0.715623
0.716325
0.716662
0.716625
0.716189
0.715309
0.71411
0.712782
0.711522
0.710699
0.710148
0.699613
0.700283
0.701243
0.702543
0.70395
0.705406
0.706845
0.708169
0.709374
0.710494
0.711329
0.711706
0.711626
0.71112
0.710314
0.709366
0.708353
0.707429
0.706844
0.706438
0.694839
0.695356
0.696137
0.697264
0.698538
0.699909
0.701353
0.702826
0.70426
0.705609
0.706629
0.707108
0.707087
0.706703
0.7061
0.705374
0.704599
0.703914
0.70348
0.703163
0.69012
0.69053
0.691184
0.692186
0.693387
0.69471
0.696152
0.697708
0.699334
0.700943
0.702201
0.702866
0.703033
0.702863
0.702478
0.701959
0.701386
0.700892
0.700569
0.700311
0.685369
0.685703
0.686267
0.68719
0.688341
0.689648
0.691123
0.692774
0.694583
0.696474
0.698043
0.698995
0.699431
0.699507
0.699347
0.699047
0.698665
0.698328
0.698089
0.697873
0.680499
0.680777
0.68128
0.682155
0.683287
0.684616
0.686163
0.687949
0.689982
0.6922
0.69416
0.695482
0.696241
0.696598
0.696683
0.696602
0.696408
0.69621
0.696038
0.695852
0.675424
0.675657
0.676121
0.67698
0.678132
0.679527
0.681186
0.683162
0.685481
0.688105
0.690546
0.692312
0.693449
0.694128
0.694486
0.69463
0.694622
0.694552
0.694435
0.694269
0.670053
0.670251
0.670695
0.671567
0.672781
0.674286
0.676112
0.678344
0.68103
0.684166
0.687188
0.689482
0.69106
0.692105
0.692766
0.693148
0.693346
0.693392
0.693322
0.69317
0.664288
0.664457
0.664898
0.665812
0.667129
0.668795
0.670856
0.673423
0.676576
0.680346
0.684075
0.686998
0.689095
0.690558
0.691565
0.692234
0.69263
0.692789
0.692759
0.692616
0.658011
0.658157
0.65861
0.659596
0.661063
0.662948
0.665321
0.668317
0.672059
0.676609
0.681194
0.68487
0.68758
0.689538
0.690936
0.691914
0.692537
0.692814
0.692821
0.692684
0.65109
0.65121
0.651691
0.65278
0.654448
0.656624
0.659394
0.662936
0.667412
0.672918
0.678539
0.683116
0.686554
0.689092
0.69095
0.692282
0.69316
0.693559
0.6936
0.693464
0.643348
0.643445
0.643968
0.645197
0.647123
0.649668
0.652949
0.657179
0.662565
0.669239
0.676112
0.681767
0.686063
0.689286
0.691697
0.693444
0.694602
0.695128
0.6952
0.695061
0.634557
0.634658
0.635235
0.63662
0.638877
0.641901
0.645832
0.650929
0.657449
0.665556
0.673933
0.680865
0.686175
0.690198
0.693265
0.695494
0.69697
0.697632
0.697735
0.69759
0.624418
0.624499
0.625167
0.626776
0.629465
0.633106
0.63786
0.644047
0.651976
0.661834
0.672015
0.680455
0.68696
0.691928
0.695745
0.698544
0.700381
0.701188
0.701318
0.701163
0.612563
0.612629
0.613395
0.615316
0.618562
0.622994
0.628803
0.636374
0.64606
0.658053
0.670389
0.680602
0.688494
0.694569
0.699252
0.702718
0.704951
0.705906
0.706059
0.705892
0.598449
0.598504
0.599412
0.601746
0.605725
0.611199
0.618383
0.627729
0.639616
0.65421
0.6691
0.681378
0.690864
0.698208
0.703906
0.708119
0.710778
0.71188
0.712049
0.711865
0.581315
0.581358
0.58248
0.585398
0.590384
0.59727
0.60629
0.617953
0.632621
0.650371
0.668247
0.68288
0.694173
0.702949
0.709778
0.714827
0.717929
0.719162
0.719337
0.719132
0.560029
0.56007
0.561536
0.565328
0.571763
0.580636
0.592169
0.606888
0.625058
0.646605
0.667924
0.685199
0.698504
0.708873
0.716919
0.72288
0.72641
0.727743
0.727907
0.72768
0.532866
0.532925
0.534974
0.540178
0.548853
0.560644
0.575722
0.594504
0.617052
0.643086
0.668299
0.688465
0.703931
0.716015
0.725383
0.73225
0.736144
0.737521
0.737652
0.737402
0.496802
0.496959
0.500206
0.508015
0.520478
0.536721
0.556847
0.580965
0.608881
0.640101
0.66959
0.692814
0.710535
0.724397
0.735136
0.742825
0.74695
0.748282
0.748356
0.748086
0.446086
0.44705
0.453504
0.466658
0.485705
0.508833
0.535923
0.566787
0.60103
0.638011
0.672019
0.69838
0.718373
0.733984
0.746042
0.754374
0.758526
0.759708
0.759707
0.759424
0.371847
0.379044
0.393978
0.417131
0.445999
0.478343
0.51394
0.55257
0.593843
0.637099
0.675993
0.705757
0.728239
0.745791
0.759226
0.768095
0.772184
0.773204
0.773154
0.772906
0.291965
0.309028
0.33324
0.367056
0.406124
0.447833
0.492033
0.53866
0.587401
0.637664
0.682396
0.716453
0.742081
0.762042
0.777189
0.786501
0.790255
0.791017
0.790983
0.790832
0.225402
0.245515
0.277408
0.320269
0.368359
0.418893
0.471425
0.52588
0.581934
0.639009
0.689338
0.727422
0.755995
0.778065
0.794351
0.803697
0.807191
0.807878
0.807888
0.807788
0.170884
0.192647
0.230037
0.279305
0.334519
0.392492
0.45241
0.51407
0.577019
0.64059
0.696232
0.73809
0.769326
0.793204
0.810548
0.820169
0.823795
0.824561
0.824594
0.82453
0.125468
0.148418
0.18959
0.243948
0.304894
0.369016
0.435278
0.503337
0.572587
0.642227
0.702895
0.748321
0.782074
0.80775
0.826194
0.836538
0.840422
0.841115
0.84119
0.841159
0.0868957
0.110522
0.15455
0.212954
0.278717
0.348066
0.419834
0.493585
0.568583
0.643875
0.709288
0.758112
0.7943
0.821748
0.841306
0.852387
0.856585
0.857347
0.857456
0.857455
0.0531507
0.0772282
0.123528
0.185255
0.255089
0.328985
0.405641
0.484529
0.564806
0.645374
0.715267
0.767316
0.8058
0.834906
0.855551
0.867278
0.871848
0.872764
0.872909
0.872924
0.0227499
0.0472261
0.0953809
0.159954
0.2333
0.311179
0.392212
0.475781
0.560953
0.646495
0.720651
0.77576
0.81639
0.846967
0.868604
0.880938
0.885853
0.886989
0.887137
0.887148
-0.00525659
0.019583
0.0693096
0.136347
0.212784
0.294191
0.379161
0.467019
0.556769
0.647045
0.725312
0.783346
0.825983
0.857915
0.880404
0.893223
0.898411
0.899687
0.89984
0.899839
-0.0316583
-0.0064085
0.0448295
0.113924
0.193123
0.277676
0.366206
0.458011
0.552054
0.646872
0.729154
0.790055
0.834609
0.867797
0.890929
0.904114
0.909476
0.910846
0.911001
0.910988
-0.0568246
-0.0311463
0.0212853
0.0923856
0.174018
0.261395
0.353149
0.448587
0.546666
0.645874
0.732131
0.795902
0.842345
0.876677
0.900385
0.913739
0.919183
0.920612
0.920736
0.920692
-0.081163
-0.0549175
-0.00146213
0.071468
0.155269
0.245179
0.33986
0.438639
0.54051
0.643964
0.734205
0.80092
0.849292
0.884728
0.908905
0.922345
0.927809
0.929224
0.929323
0.929259
-0.104803
-0.0781642
-0.0235233
0.051011
0.136754
0.228936
0.326261
0.428109
0.533527
0.641086
0.735351
0.805151
0.855567
0.89215
0.916733
0.930154
0.935529
0.936876
0.936965
0.936875
-0.127876
-0.100706
-0.0450422
0.030935
0.118418
0.212627
0.312328
0.416968
0.525685
0.637193
0.735533
0.808624
0.861279
0.899095
0.924011
0.937287
0.942493
0.943737
0.943763
0.943645
-0.150508
-0.122758
-0.0660942
0.0112085
0.100235
0.196252
0.298075
0.405233
0.516987
0.632257
0.734705
0.811329
0.866521
0.905716
0.930884
0.943864
0.948748
0.949819
0.949779
0.949638
-0.172714
-0.144298
-0.0867034
-0.00817006
0.082233
0.179836
0.283544
0.392948
0.507457
0.626255
0.732807
0.813225
0.871346
0.912177
0.937545
0.950002
0.954375
0.955196
0.955094
0.954945
-0.194337
-0.165293
-0.106805
-0.0271794
0.0644452
0.163445
0.268793
0.380181
0.497151
0.619208
0.72977
0.814235
0.875739
0.918624
0.944284
0.955964
0.959497
0.959926
0.959749
0.95959
-0.215357
-0.185716
-0.126388
-0.0457705
0.0469259
0.147135
0.253911
0.36701
0.486146
0.611143
0.725542
0.814233
0.879609
0.925131
0.951488
0.96226
0.964438
0.964103
0.963793
0.963684
-0.235842
-0.205532
-0.145425
-0.0639126
0.0297371
0.130988
0.238984
0.353537
0.47453
0.602119
0.720073
0.813071
0.882763
0.931594
0.959497
0.969761
0.970101
0.968134
0.967365
0.967528
-0.255619
-0.224717
-0.163861
-0.0815455
0.0129366
0.115086
0.224105
0.33987
0.462419
0.592229
0.713352
0.810577
0.884909
0.937647
0.968268
0.979443
0.978484
0.974053
0.9713
0.970804
-0.274783
-0.243261
-0.181714
-0.0986976
-0.00350893
0.0993853
0.209219
0.325954
0.449747
0.581399
0.705243
0.806474
0.885727
0.942755
0.977129
0.99154
0.991958
0.985723
0.977363
0.963194
-0.293258
-0.26115
-0.1991
-0.115568
-0.0198825
0.0835586
0.193917
0.311314
0.435986
0.569002
0.695108
0.799987
0.884641
0.946171
0.984323
1.00376
1.0063
0.993927
0.974275
0.962371
-0.310869
-0.278518
-0.215825
-0.131951
-0.0358384
0.0679474
0.178423
0.296271
0.421436
0.555294
0.68301
0.790635
0.880829
0.946752
0.985591
1.00485
1.01024
0.987193
0.919398
0.888924
-0.326948
-0.296606
-0.231555
-0.147339
-0.0505994
0.0530523
0.163049
0.281053
0.406315
0.540394
0.668883
0.778104
0.872886
0.943846
0.975982
0.989691
0.979602
0.925622
0.856488
0.813938
-0.382711
-0.312567
-0.245854
-0.162842
-0.0657719
0.0374179
0.147729
0.265378
0.390252
0.523842
0.652124
0.761742
0.856979
0.934516
0.939718
0.942825
0.893687
0.82358
0.746943
0.704278
-0.344083
-0.327999
-0.267216
-0.183361
-0.0881613
0.0149571
0.124253
0.241238
0.36509
0.497192
0.623434
0.731216
0.818456
0.900435
0.887702
0.774755
0.66966
0.596512
0.523104
0.553774
-0.375167
-0.345726
-0.283995
-0.200936
-0.105741
-0.00276936
0.10679
0.223134
0.3459
0.476157
0.599544
0.703051
0.781209
0.82477
0.776517
0.627827
0.500031
0.40866
0.309872
0.36009
-0.399126
-0.366743
-0.30375
-0.22051
-0.12521
-0.0223346
0.0871466
0.202655
0.324013
0.451837
0.571479
0.668804
0.738044
0.747428
0.641099
0.468283
0.315603
0.196813
0.0656675
0.0985455
-0.422595
-0.388658
-0.324462
-0.240295
-0.144884
-0.0421431
0.0668282
0.181379
0.301139
0.426161
0.541132
0.630707
0.684585
0.662847
0.504499
0.308297
0.118038
-0.0498496
-0.23841
-0.256637
-0.445478
-0.411076
-0.34597
-0.261015
-0.165429
-0.062887
0.0454531
0.158928
0.276841
0.398674
0.508266
0.590075
0.624802
0.566902
0.37461
0.164268
-0.0529074
-0.242139
-0.484148
-0.782476
-0.468667
-0.43425
-0.368582
-0.283116
-0.187317
-0.0849173
0.0228679
0.135239
0.251204
0.3696
0.473503
0.547046
0.560998
0.452003
0.261667
0.0519635
-0.152207
-0.324461
-0.393608
-0.47294
-0.493124
-0.458631
-0.392646
-0.306925
-0.211046
-0.108877
-0.00173391
0.109369
0.223077
0.337528
0.435395
0.497928
0.486997
0.344454
0.161379
-0.0293158
-0.191965
-0.284767
-0.308825
-0.324743
-0.51916
-0.484532
-0.418339
-0.332525
-0.236749
-0.134977
-0.0287092
0.0808331
0.19188
0.301759
0.393088
0.44159
0.413064
0.24472
0.0705272
-0.0950492
-0.221397
-0.260378
-0.273262
-0.274585
-0.54698
-0.512131
-0.445726
-0.359913
-0.264378
-0.163223
-0.058076
0.0495845
0.157551
0.262301
0.346181
0.380413
0.332657
0.152694
-0.0124519
-0.160658
-0.236708
-0.253769
-0.255048
-0.254846
-0.576652
-0.541497
-0.474835
-0.38909
-0.29395
-0.193605
-0.0898371
0.0156118
0.120109
0.219232
0.294779
0.317288
0.233801
0.0686277
-0.0881637
-0.21032
-0.246831
-0.245125
-0.244077
-0.243437
-0.607894
-0.572451
-0.505566
-0.419971
-0.325378
-0.226068
-0.12396
-0.0210558
0.0795983
0.172669
0.239754
0.245585
0.143638
-0.00954299
-0.148081
-0.223403
-0.233671
-0.236341
-0.237056
-0.236726
-0.640158
-0.604558
-0.537668
-0.452329
-0.358481
-0.260459
-0.160294
-0.0602841
0.0362081
0.122963
0.181546
0.172039
0.0621324
-0.0754785
-0.191214
-0.222604
-0.230825
-0.232304
-0.232147
-0.231874
-0.672983
-0.637268
-0.570707
-0.485775
-0.392921
-0.296463
-0.198562
-0.101782
-0.00978118
0.0708139
0.119265
0.102134
-0.0142489
-0.129038
-0.219865
-0.236345
-0.228807
-0.227996
-0.228044
-0.227903
-0.705481
-0.669861
-0.603786
-0.519739
-0.428161
-0.333614
-0.238323
-0.145071
-0.0579027
0.016879
0.0557576
0.0378327
-0.0833428
-0.171747
-0.21781
-0.230921
-0.228545
-0.226713
-0.225958
-0.225713
-0.736075
-0.701165
-0.635968
-0.553291
-0.463451
-0.371227
-0.278941
-0.18948
-0.107336
-0.0382587
-0.00276759
-0.0328701
-0.143642
-0.221768
-0.211408
-0.228624
-0.230948
-0.22724
-0.225469
-0.224696
-0.763189
-0.729372
-0.666131
-0.585258
-0.497766
-0.408391
-0.319572
-0.234187
-0.156936
-0.0936368
-0.0581448
-0.098511
-0.196359
-0.281345
-0.283155
-0.261453
-0.242628
-0.23285
-0.229117
-0.227616
-0.784701
-0.752637
-0.692265
-0.614252
-0.529854
-0.443983
-0.359165
-0.278211
-0.205624
-0.147821
-0.113417
-0.146271
-0.223874
-0.363782
-0.39613
-0.311193
-0.264316
-0.248046
-0.241645
-0.238591
-0.798404
-0.76907
-0.712422
-0.638432
-0.558231
-0.476726
-0.39655
-0.320423
-0.252408
-0.198927
-0.16453
-0.171144
-0.184758
-0.280068
-0.282954
-0.267918
-0.266244
-0.264295
-0.260316
-0.259252
-0.801667
-0.776427
-0.724711
-0.655975
-0.581225
-0.505254
-0.430476
-0.359695
-0.296309
-0.246338
-0.205578
-0.171427
-0.0628847
0.00633765
-0.0739683
-0.176007
-0.233181
-0.249165
-0.25463
-0.256574
-0.79229
-0.771972
-0.726944
-0.665284
-0.597368
-0.528068
-0.459675
-0.394803
-0.336854
-0.290883
-0.237869
-0.203411
-0.0354713
0.276
0.0563084
-0.159141
-0.251993
-0.283515
-0.296467
-0.301631
-0.768287
-0.752986
-0.717306
-0.665134
-0.605647
-0.544124
-0.482886
-0.424488
-0.373072
-0.332877
-0.285839
-0.344103
-0.467727
-0.564858
-0.617424
-0.565064
-0.504141
-0.474677
-0.46469
-0.464347
-0.732122
-0.722269
-0.696555
-0.655623
-0.605937
-0.552987
-0.499267
-0.447436
-0.402369
-0.370929
-0.363086
-0.560607
-1.0312
-1.60368
-1.59766
-1.09161
-0.742384
-0.601834
-0.572314
-0.564463
-0.690385
-0.684846
-0.669445
-0.63944
-0.599978
-0.555187
-0.508319
-0.462202
-0.421186
-0.394657
-0.387706
-0.49437
-0.504078
-0.521103
-0.385563
-0.304413
-0.337212
-0.386197
-0.386363
-0.37797
-0.65266
-0.649391
-0.642019
-0.621825
-0.590477
-0.552354
-0.51088
-0.467676
-0.427403
-0.394564
-0.388294
-0.315239
-0.132617
0.109391
0.166308
-0.0213081
-0.196995
-0.20048
-0.168004
-0.173665
-0.625376
-0.623389
-0.619761
-0.607002
-0.581773
-0.547642
-0.508559
-0.465966
-0.421999
-0.384116
-0.369372
-0.3431
-0.288484
-0.305458
-0.414368
-0.612932
-0.733259
-0.696325
-0.617804
-0.567467
-0.604232
-0.603464
-0.602359
-0.596052
-0.576246
-0.544176
-0.504335
-0.458799
-0.410459
-0.364026
-0.335584
-0.326155
-0.259581
-0.272313
-0.325023
-0.357924
-0.380371
-0.341556
-0.282223
-0.24855
-0.591946
-0.591588
-0.591075
-0.588513
-0.573915
-0.542175
-0.498854
-0.448453
-0.392566
-0.327608
-0.273194
-0.198011
-0.113818
-0.0254303
0.0036474
0.0250593
0.121977
0.26835
0.380947
0.427043
-0.584024
-0.583841
-0.583458
-0.583399
-0.574052
-0.541985
-0.4943
-0.437581
-0.369573
-0.292141
-0.204405
-0.0825317
0.124769
0.339711
0.550416
0.749299
0.964386
1.14995
1.26481
1.30627
-0.578417
-0.578706
-0.579435
-0.580891
-0.574349
-0.542915
-0.491644
-0.427815
-0.350854
-0.2583
-0.145419
-0.033318
0.206518
0.525774
0.896957
1.25291
1.54076
1.73016
1.82313
1.85023
-0.570389
-0.571094
-0.572583
-0.573919
-0.568654
-0.541303
-0.491206
-0.42309
-0.337759
-0.233471
-0.117265
0.00100076
0.213452
0.564922
0.953485
1.30392
1.58206
1.74762
1.82135
1.84035
-0.567574
-0.565816
-0.55842
-0.546615
-0.542377
-0.536646
-0.497679
-0.426156
-0.332859
-0.223181
-0.10629
0.0147008
0.165999
0.471232
0.809958
1.11156
1.33807
1.4651
1.51848
1.53076
-0.603468
-0.597349
-0.580983
-0.562095
-0.559435
-0.564982
-0.523072
-0.437495
-0.332515
-0.218072
-0.105819
0.00441772
0.112552
0.32961
0.603394
0.83197
1.00583
1.09731
1.13384
1.14021
-0.695042
-0.697855
-0.710244
-0.726967
-0.72141
-0.687189
-0.579976
-0.454385
-0.332416
-0.214541
-0.109194
-0.0186583
0.0575466
0.209359
0.404595
0.568733
0.689287
0.750869
0.774186
0.776854
-0.80264
-0.822559
-0.86082
-0.884053
-0.870626
-0.789258
-0.621369
-0.459094
-0.323589
-0.207501
-0.114571
-0.0399274
0.0165215
0.122706
0.251829
0.357448
0.431662
0.469468
0.482505
0.484115
-0.781687
-0.801116
-0.835923
-0.859154
-0.842311
-0.745926
-0.576972
-0.421257
-0.294277
-0.191497
-0.113364
-0.052946
-0.00570354
0.0619029
0.138765
0.199265
0.237513
0.254055
0.260848
0.261124
-0.552228
-0.570545
-0.600323
-0.624661
-0.614767
-0.54071
-0.43249
-0.328257
-0.238423
-0.162613
-0.104911
-0.0605346
-0.0235764
0.0208558
0.0592649
0.086607
0.101427
0.107557
0.109604
0.109801
-0.226465
-0.236094
-0.254342
-0.276864
-0.289093
-0.277354
-0.247823
-0.208374
-0.166936
-0.125204
-0.0915546
-0.065218
-0.0420388
-0.0146173
0.00793519
0.0197241
0.0223571
0.0214808
0.0219354
0.0220913
0.0297133
0.0256716
0.0134543
-0.00998988
-0.0418657
-0.0722719
-0.0929885
-0.101022
-0.0971534
-0.0861372
-0.077594
-0.074775
-0.068844
-0.0507642
-0.0330505
-0.0225521
-0.0181807
-0.0164889
-0.0154053
-0.0154072
0.158396
0.156061
0.14659
0.124083
0.0870657
0.0440474
0.00584067
-0.0226024
-0.0402046
-0.0502774
-0.062077
-0.0910689
-0.101395
-0.0756695
-0.0500455
-0.0349586
-0.0281148
-0.0257626
-0.0248664
-0.0250884
0.196923
0.195243
0.18795
0.16983
0.139043
0.100955
0.0624799
0.0292262
0.00363551
-0.0162447
-0.0400668
-0.0781858
-0.0997145
-0.0675155
-0.0394015
-0.0250298
-0.0190135
-0.0171629
-0.0165962
-0.0167559
0.194142
0.192936
0.187824
0.17501
0.152803
0.123991
0.0925194
0.062947
0.0377591
0.0171297
-0.00370444
-0.0316215
-0.0392811
-0.015398
0.000742738
0.00646143
0.00761628
0.00765029
0.00773265
0.00748366
0.177001
0.176249
0.172972
0.164574
0.149636
0.129489
0.106289
0.0835718
0.064204
0.0507146
0.0424601
0.0371792
0.0457524
0.0568866
0.0568838
0.0530571
0.0477876
0.0449722
0.0442307
0.0440724
0.156497
0.156106
0.154178
0.149012
0.139506
0.126276
0.110661
0.0953288
0.0834455
0.0788019
0.0870429
0.105832
0.131722
0.128851
0.115396
0.104519
0.097874
0.0961774
0.0949824
0.094531
0.136
0.135904
0.134904
0.131965
0.126293
0.118198
0.108623
0.0997461
0.0947955
0.099276
0.120313
0.154472
0.187132
0.180532
0.162425
0.150514
0.144483
0.142934
0.14237
0.141393
0.116337
0.116332
0.115918
0.114438
0.111364
0.106897
0.101792
0.0979084
0.0983822
0.109084
0.136962
0.176527
0.208526
0.200698
0.184917
0.176311
0.17336
0.173399
0.17226
0.171055
0.0970807
0.0971814
0.0971112
0.0965394
0.0951852
0.0931453
0.0910864
0.0905043
0.0942474
0.107593
0.136022
0.173041
0.197735
0.190269
0.179749
0.176915
0.178854
0.180325
0.179346
0.178004
0.0779622
0.0780998
0.0782269
0.0782057
0.0778839
0.0773774
0.0771567
0.0784098
0.083468
0.0963109
0.120406
0.148615
0.163791
0.157251
0.154604
0.157847
0.161827
0.163432
0.1625
0.161484
0.0588629
0.0589935
0.0592025
0.0594677
0.0597391
0.0600692
0.0607596
0.0627116
0.0675482
0.0777223
0.094471
0.111049
0.118398
0.112239
0.114893
0.123277
0.130218
0.132465
0.132113
0.131154
0.0399555
0.040053
0.040261
0.0406244
0.0411355
0.0417983
0.0427772
0.044543
0.0480913
0.0546396
0.062558
0.0648354
0.0591705
0.0566573
0.0665282
0.0797915
0.088055
0.0904192
0.0902956
0.0896071
0.02157
0.0216119
0.0217286
0.0220579
0.0225776
0.0231879
0.024045
0.0250342
0.0269684
0.0300772
0.0310005
0.0215096
0.0118437
0.0121273
0.0248653
0.037266
0.0443749
0.046033
0.0456407
0.0451948
0.00406235
0.00406658
0.00406369
0.00414947
0.00439389
0.0046472
0.00483417
0.00501005
0.00534224
0.00553432
0.00530376
0.0017017
-0.00251832
-0.00278921
0.0023232
0.00602521
0.00319324
0.00226948
0.00456882
0.00593885
-0.00954253
0.157428
0.352405
0.522557
0.658542
0.76566
0.854254
0.929662
0.964001
0.940727
0.293361
0.414119
0.544048
0.656341
0.750992
0.829315
0.892732
0.937759
0.9603
0.972399
0.512325
0.595168
0.683975
0.762405
0.829861
0.8863
0.93119
0.963996
0.987719
1.00572
0.673188
0.732475
0.794146
0.851255
0.90093
0.943123
0.977786
1.00545
1.02824
1.04655
0.798671
0.841803
0.88778
0.931599
0.970314
1.00414
1.03309
1.0572
1.07758
1.09542
0.903018
0.935906
0.974031
1.00959
1.04223
1.07149
1.09707
1.11857
1.13642
1.15377
0.995585
1.02429
1.05827
1.09041
1.12037
1.14755
1.17131
1.19104
1.20654
1.22362
1.08419
1.1134
1.14741
1.17946
1.20907
1.23566
1.25854
1.27703
1.2904
1.30743
1.17951
1.21272
1.24937
1.28295
1.313
1.33919
1.36115
1.37843
1.3903
1.4077
1.29451
1.33234
1.37099
1.40524
1.43458
1.45933
1.47971
1.4956
1.50707
1.52514
1.43946
1.478
1.51414
1.54483
1.57051
1.59261
1.61167
1.6272
1.63962
1.65762
1.61454
1.64616
1.67234
1.69479
1.71476
1.73349
1.7512
1.76768
1.78303
1.8011
1.80315
1.82035
1.83539
1.85162
1.86753
1.88206
1.89527
1.90919
1.92673
1.94689
1.98487
1.99441
2.00595
2.01676
2.02605
2.03563
2.04641
2.05778
2.06914
2.0845
2.19211
2.19577
2.18082
2.16602
2.15974
2.16541
2.18389
2.2142
2.24638
2.27304
2.49843
2.36356
2.28693
2.24454
2.22712
2.23109
2.25848
2.3149
2.41752
2.64188
0.80171
0.799582
0.795098
0.786473
0.774249
0.762119
0.75189
0.743995
0.738378
0.735125
0.734772
0.737511
0.742615
0.749838
0.759225
0.770764
0.783414
0.794448
0.80056
0.803614
0.726163
0.73201
0.738343
0.742835
0.745305
0.74498
0.742242
0.738432
0.734922
0.732664
0.732518
0.734716
0.738379
0.742667
0.746473
0.748355
0.747418
0.743936
0.738772
0.732151
0.717738
0.720034
0.723437
0.726433
0.728507
0.730002
0.730757
0.73044
0.729415
0.728533
0.728709
0.730136
0.73195
0.733254
0.733433
0.732541
0.73099
0.728653
0.725389
0.722468
0.712226
0.713313
0.715145
0.717522
0.719544
0.720971
0.72199
0.722741
0.723143
0.723366
0.723857
0.724664
0.725259
0.725323
0.724908
0.724057
0.722586
0.7205
0.718413
0.71703
0.707023
0.707685
0.708793
0.710496
0.712276
0.713906
0.7152
0.716214
0.717096
0.717887
0.718616
0.719165
0.719355
0.719185
0.718614
0.717556
0.716125
0.71458
0.71326
0.71248
0.702046
0.702507
0.703292
0.704588
0.706072
0.707587
0.709049
0.710345
0.711479
0.712535
0.713448
0.714012
0.714152
0.713873
0.71317
0.712176
0.711047
0.709912
0.708995
0.708477
0.697217
0.697561
0.698171
0.699237
0.700527
0.701898
0.703333
0.704775
0.706145
0.707423
0.708531
0.709216
0.709386
0.709103
0.708497
0.707714
0.706858
0.705988
0.705314
0.704935
0.69248
0.692748
0.69324
0.694146
0.695311
0.696603
0.697993
0.699476
0.701012
0.702528
0.703871
0.704731
0.705022
0.704891
0.704489
0.703921
0.703266
0.702623
0.702129
0.70184
0.687756
0.687969
0.688378
0.689173
0.690257
0.6915
0.692878
0.694406
0.696071
0.69782
0.699444
0.700559
0.701083
0.701187
0.701011
0.700659
0.700208
0.699754
0.699399
0.699173
0.682957
0.683129
0.683479
0.6842
0.685238
0.686457
0.687861
0.68947
0.691288
0.693286
0.695245
0.696708
0.697547
0.697931
0.698
0.697873
0.697629
0.697345
0.697105
0.696925
0.677996
0.678135
0.678444
0.67912
0.680139
0.681381
0.68285
0.684582
0.686605
0.688906
0.691275
0.693172
0.694388
0.695097
0.695444
0.695553
0.695518
0.695396
0.695253
0.695108
0.672785
0.672897
0.673178
0.673834
0.67487
0.67618
0.677757
0.679665
0.68196
0.684646
0.687522
0.68994
0.691602
0.692685
0.693347
0.693716
0.693885
0.69393
0.693872
0.693754
0.66723
0.667319
0.667583
0.668244
0.669334
0.670753
0.672493
0.674645
0.677289
0.680466
0.683963
0.687007
0.689195
0.69071
0.691724
0.692393
0.692798
0.692995
0.693012
0.692916
0.661224
0.661293
0.66155
0.662239
0.663419
0.664995
0.666961
0.669436
0.672528
0.676318
0.680576
0.684373
0.687185
0.689207
0.690626
0.691629
0.692289
0.692652
0.69274
0.692661
0.654642
0.65469
0.654949
0.655688
0.657
0.658788
0.661054
0.663943
0.667601
0.672149
0.677334
0.682038
0.685594
0.688215
0.690107
0.691482
0.69244
0.692981
0.693138
0.693073
0.647332
0.647362
0.647626
0.648438
0.649926
0.651992
0.654642
0.658058
0.662427
0.667908
0.674221
0.680015
0.684456
0.687784
0.690236
0.692052
0.693347
0.694079
0.694306
0.694252
0.639105
0.639123
0.639387
0.6403
0.642017
0.644426
0.647571
0.651656
0.656913
0.663547
0.67123
0.678329
0.683818
0.687976
0.691092
0.693441
0.695115
0.696055
0.696352
0.696306
0.629653
0.62964
0.629967
0.631014
0.633019
0.635882
0.63966
0.64459
0.650962
0.659018
0.668362
0.677014
0.68374
0.688874
0.692766
0.695737
0.697848
0.699021
0.699391
0.699351
0.618696
0.618658
0.619029
0.62027
0.622645
0.626095
0.630677
0.636679
0.644446
0.654259
0.66561
0.676107
0.684283
0.690565
0.69537
0.699055
0.701673
0.703096
0.703536
0.703498
0.605758
0.605693
0.606142
0.607635
0.610494
0.614708
0.620334
0.627713
0.637243
0.649219
0.662985
0.675659
0.685523
0.693134
0.699002
0.703511
0.706697
0.708384
0.708891
0.708851
0.590198
0.590104
0.590676
0.592519
0.596026
0.601261
0.608273
0.617453
0.629237
0.643899
0.660554
0.675755
0.687551
0.696668
0.703761
0.7092
0.713011
0.714967
0.71553
0.715481
0.571084
0.570962
0.571734
0.57409
0.578514
0.585172
0.594077
0.605658
0.620344
0.638318
0.658392
0.676493
0.690465
0.701275
0.709711
0.716193
0.720664
0.722874
0.723473
0.723407
0.547025
0.546887
0.547988
0.551138
0.556939
0.565672
0.577259
0.592109
0.610542
0.632574
0.656635
0.677989
0.694356
0.707017
0.716899
0.724522
0.72964
0.732057
0.732661
0.732571
0.515716
0.515597
0.517307
0.521832
0.529923
0.541886
0.557407
0.57674
0.59997
0.626877
0.655488
0.680406
0.699327
0.713951
0.725376
0.734156
0.739834
0.742365
0.742931
0.742809
0.473034
0.473075
0.476119
0.483508
0.495839
0.513074
0.534418
0.559795
0.589011
0.621625
0.655261
0.68394
0.705484
0.722112
0.735098
0.744965
0.751019
0.753512
0.753987
0.75383
0.411276
0.412461
0.419907
0.433685
0.453755
0.479369
0.508905
0.541971
0.578255
0.617217
0.656178
0.688708
0.712873
0.731447
0.745884
0.756623
0.762812
0.765031
0.765336
0.765154
0.337954
0.339686
0.35394
0.377605
0.408534
0.444042
0.482527
0.523812
0.567706
0.613714
0.658878
0.696188
0.723782
0.744878
0.761142
0.77287
0.77912
0.781171
0.781441
0.781353
0.262245
0.268368
0.289427
0.323269
0.364554
0.409674
0.457081
0.506643
0.558234
0.6114
0.662964
0.705245
0.736393
0.760185
0.778484
0.791026
0.796952
0.798589
0.798794
0.798767
0.200313
0.208726
0.234344
0.275168
0.324553
0.377874
0.43332
0.490623
0.549565
0.609639
0.667348
0.714319
0.748762
0.774924
0.794714
0.807781
0.813685
0.815159
0.815434
0.815471
0.149928
0.158936
0.188091
0.234134
0.289645
0.34958
0.411836
0.475989
0.541649
0.608182
0.671701
0.723109
0.760607
0.788947
0.810231
0.823967
0.829942
0.831795
0.832159
0.832242
0.107716
0.11701
0.148615
0.19865
0.25919
0.324613
0.39264
0.462772
0.534466
0.606955
0.675934
0.731546
0.771971
0.802433
0.825164
0.83983
0.846316
0.848477
0.848883
0.848973
0.071327
0.0807386
0.114192
0.167426
0.232118
0.302221
0.375277
0.45071
0.527873
0.605863
0.679967
0.739563
0.782773
0.815269
0.839423
0.855003
0.862168
0.8645
0.864955
0.865018
0.0390977
0.0485546
0.0834292
0.139368
0.207543
0.28168
0.359186
0.43939
0.521558
0.604663
0.683602
0.746976
0.792825
0.82719
0.85268
0.869129
0.876901
0.879445
0.879942
0.880011
0.00976031
0.019267
0.0553076
0.113594
0.184753
0.262421
0.343879
0.428406
0.51519
0.603107
0.686657
0.753647
0.801976
0.838057
0.864716
0.881886
0.890222
0.892962
0.893476
0.893528
-0.0175434
-0.00797929
0.029108
0.0893744
0.163208
0.244002
0.328994
0.417455
0.508523
0.600994
0.688992
0.759493
0.810195
0.847902
0.875563
0.893312
0.902008
0.904893
0.905432
0.90546
-0.0433669
-0.0337369
0.00432399
0.0662815
0.142523
0.226098
0.314275
0.406325
0.50137
0.598169
0.690505
0.764479
0.817518
0.856743
0.885322
0.903504
0.912334
0.915334
0.915896
0.915897
-0.0682142
-0.0584121
-0.0194988
0.0440671
0.12243
0.208485
0.299537
0.394861
0.493608
0.594529
0.691124
0.768601
0.824008
0.864717
0.894085
0.912567
0.921482
0.924482
0.925038
0.925023
-0.0923118
-0.0822791
-0.0426137
0.0225073
0.102749
0.191021
0.284665
0.382977
0.485155
0.590003
0.690796
0.771856
0.829735
0.871971
0.90209
0.920783
0.929678
0.932623
0.933134
0.933077
-0.115766
-0.105521
-0.0650374
0.00145195
0.0833766
0.17364
0.269604
0.370627
0.47597
0.584531
0.689472
0.774253
0.834774
0.878656
0.909526
0.928318
0.937083
0.939916
0.940365
0.940291
-0.138733
-0.128181
-0.0869367
-0.019164
0.0642693
0.156304
0.25434
0.357805
0.466045
0.578097
0.687108
0.775769
0.839182
0.884907
0.916538
0.935295
0.943829
0.946469
0.946822
0.946711
-0.161177
-0.150342
-0.108352
-0.039376
0.0454205
0.139027
0.238906
0.344547
0.455406
0.570692
0.683664
0.77635
0.842985
0.890848
0.923298
0.941857
0.949951
0.952293
0.95252
0.952375
-0.183152
-0.172004
-0.129219
-0.0591695
0.0268509
0.121842
0.223341
0.330911
0.444104
0.56234
0.679101
0.775925
0.846155
0.896571
0.930015
0.948228
0.9556
0.95746
0.957534
0.957372
-0.204482
-0.193091
-0.149533
-0.0785017
0.00860715
0.10482
0.207713
0.316967
0.432212
0.553097
0.673398
0.774406
0.848604
0.902096
0.936935
0.954802
0.961068
0.962092
0.961907
0.961733
-0.225306
-0.213564
-0.169279
-0.097351
-0.00927856
0.0879987
0.192112
0.302796
0.419816
0.543041
0.666562
0.771689
0.850177
0.907322
0.944234
0.962151
0.96702
0.966539
0.965717
0.965527
-0.245458
-0.233397
-0.188424
-0.115673
-0.0267263
0.0714643
0.17662
0.288519
0.407028
0.532238
0.658631
0.767669
0.850668
0.91199
0.95183
0.970881
0.974771
0.972039
0.969484
0.968481
-0.265
-0.252631
-0.206916
-0.133413
-0.0436997
0.0552858
0.161322
0.274216
0.393957
0.520824
0.649674
0.762251
0.849839
0.915687
0.959187
0.98101
0.985859
0.981754
0.975213
0.966667
-0.283846
-0.271223
-0.224846
-0.150727
-0.0604059
0.0391907
0.145885
0.259491
0.380161
0.508302
0.639159
0.754877
0.847182
0.91802
0.965596
0.991748
1.00052
0.996863
0.986668
0.98108
-0.301948
-0.289097
-0.242201
-0.167583
-0.0768482
0.0231843
0.130324
0.244325
0.365593
0.494553
0.626891
0.745159
0.841913
0.918191
0.969034
0.998672
1.00987
1.01045
0.972719
0.920794
-0.319011
-0.30547
-0.25884
-0.183909
-0.0931271
0.00711404
0.114587
0.228834
0.35031
0.479631
0.612797
0.732856